[Molden Format]
[Atoms] (AU)
C    1    6         2.692996544949       0.121705921384      -0.214878868000
H    2    1         4.736250256935       0.348478914590      -0.219160987400
C    3    6         1.372372402584       0.196467266359      -2.381511097964
H    4    1         2.319246322883       0.513610742337      -4.178212053389
C    5    6        -1.372372402584      -0.196467266359      -2.381511097964
H    6    1        -2.319246322883      -0.513610742337      -4.178212053389
C    7    6        -2.692996544949      -0.121705921384      -0.214878868000
H    8    1        -4.736250256935      -0.348478914590      -0.219160987400
C    9    6        -1.382905736008       0.452434638477       2.258843117009
H   10    1        -1.442483131565       2.513277921239       2.573556405189
H   11    1        -2.403940257347      -0.396593231470       3.849140815080
C   12    6         1.382905736008      -0.452434638477       2.258843117009
H   13    1         1.442483131565      -2.513277921239       2.573556405189
H   14    1         2.403940257347       0.396593231470       3.849140815080
[GTO]
  1 0
 s    6  1.00
     4563.2400000000         0.0019666500
      682.0240000000         0.0152306000
      154.9730000000         0.0761269000
       44.4553000000         0.2608010000
       13.0290000000         0.6164620000
        1.8277300000         0.2210060000
 s    3  1.00
       20.9642000000         0.1146600000
        4.8033100000         0.9199990000
        1.4593300000        -0.0030306800
 p    3  1.00
       20.9642000000         0.0402487000
        4.8033100000         0.2375940000
        1.4593300000         0.8158540000
 s    1  1.00
        0.4834560000         1.0000000000
 p    1  1.00
        0.4834560000         1.0000000000
 s    1  1.00
        0.1455850000         1.0000000000
 p    1  1.00
        0.1455850000         1.0000000000
 d    1  1.00
        0.6260000000         1.0000000000
 s    1  1.00
        0.0438000000         1.0000000000
 p    1  1.00
        0.0438000000         1.0000000000

  2 0
 s    3  1.00
       33.8650000000         0.0254938000
        5.0947900000         0.1903730000
        1.1587900000         0.8521610000
 s    1  1.00
        0.3258400000         1.0000000000
 s    1  1.00
        0.1027410000         1.0000000000

  3 0
 s    6  1.00
     4563.2400000000         0.0019666500
      682.0240000000         0.0152306000
      154.9730000000         0.0761269000
       44.4553000000         0.2608010000
       13.0290000000         0.6164620000
        1.8277300000         0.2210060000
 s    3  1.00
       20.9642000000         0.1146600000
        4.8033100000         0.9199990000
        1.4593300000        -0.0030306800
 p    3  1.00
       20.9642000000         0.0402487000
        4.8033100000         0.2375940000
        1.4593300000         0.8158540000
 s    1  1.00
        0.4834560000         1.0000000000
 p    1  1.00
        0.4834560000         1.0000000000
 s    1  1.00
        0.1455850000         1.0000000000
 p    1  1.00
        0.1455850000         1.0000000000
 d    1  1.00
        0.6260000000         1.0000000000
 s    1  1.00
        0.0438000000         1.0000000000
 p    1  1.00
        0.0438000000         1.0000000000

  4 0
 s    3  1.00
       33.8650000000         0.0254938000
        5.0947900000         0.1903730000
        1.1587900000         0.8521610000
 s    1  1.00
        0.3258400000         1.0000000000
 s    1  1.00
        0.1027410000         1.0000000000

  5 0
 s    6  1.00
     4563.2400000000         0.0019666500
      682.0240000000         0.0152306000
      154.9730000000         0.0761269000
       44.4553000000         0.2608010000
       13.0290000000         0.6164620000
        1.8277300000         0.2210060000
 s    3  1.00
       20.9642000000         0.1146600000
        4.8033100000         0.9199990000
        1.4593300000        -0.0030306800
 p    3  1.00
       20.9642000000         0.0402487000
        4.8033100000         0.2375940000
        1.4593300000         0.8158540000
 s    1  1.00
        0.4834560000         1.0000000000
 p    1  1.00
        0.4834560000         1.0000000000
 s    1  1.00
        0.1455850000         1.0000000000
 p    1  1.00
        0.1455850000         1.0000000000
 d    1  1.00
        0.6260000000         1.0000000000
 s    1  1.00
        0.0438000000         1.0000000000
 p    1  1.00
        0.0438000000         1.0000000000

  6 0
 s    3  1.00
       33.8650000000         0.0254938000
        5.0947900000         0.1903730000
        1.1587900000         0.8521610000
 s    1  1.00
        0.3258400000         1.0000000000
 s    1  1.00
        0.1027410000         1.0000000000

  7 0
 s    6  1.00
     4563.2400000000         0.0019666500
      682.0240000000         0.0152306000
      154.9730000000         0.0761269000
       44.4553000000         0.2608010000
       13.0290000000         0.6164620000
        1.8277300000         0.2210060000
 s    3  1.00
       20.9642000000         0.1146600000
        4.8033100000         0.9199990000
        1.4593300000        -0.0030306800
 p    3  1.00
       20.9642000000         0.0402487000
        4.8033100000         0.2375940000
        1.4593300000         0.8158540000
 s    1  1.00
        0.4834560000         1.0000000000
 p    1  1.00
        0.4834560000         1.0000000000
 s    1  1.00
        0.1455850000         1.0000000000
 p    1  1.00
        0.1455850000         1.0000000000
 d    1  1.00
        0.6260000000         1.0000000000
 s    1  1.00
        0.0438000000         1.0000000000
 p    1  1.00
        0.0438000000         1.0000000000

  8 0
 s    3  1.00
       33.8650000000         0.0254938000
        5.0947900000         0.1903730000
        1.1587900000         0.8521610000
 s    1  1.00
        0.3258400000         1.0000000000
 s    1  1.00
        0.1027410000         1.0000000000

  9 0
 s    6  1.00
     4563.2400000000         0.0019666500
      682.0240000000         0.0152306000
      154.9730000000         0.0761269000
       44.4553000000         0.2608010000
       13.0290000000         0.6164620000
        1.8277300000         0.2210060000
 s    3  1.00
       20.9642000000         0.1146600000
        4.8033100000         0.9199990000
        1.4593300000        -0.0030306800
 p    3  1.00
       20.9642000000         0.0402487000
        4.8033100000         0.2375940000
        1.4593300000         0.8158540000
 s    1  1.00
        0.4834560000         1.0000000000
 p    1  1.00
        0.4834560000         1.0000000000
 s    1  1.00
        0.1455850000         1.0000000000
 p    1  1.00
        0.1455850000         1.0000000000
 d    1  1.00
        0.6260000000         1.0000000000
 s    1  1.00
        0.0438000000         1.0000000000
 p    1  1.00
        0.0438000000         1.0000000000

  10 0
 s    3  1.00
       33.8650000000         0.0254938000
        5.0947900000         0.1903730000
        1.1587900000         0.8521610000
 s    1  1.00
        0.3258400000         1.0000000000
 s    1  1.00
        0.1027410000         1.0000000000

  11 0
 s    3  1.00
       33.8650000000         0.0254938000
        5.0947900000         0.1903730000
        1.1587900000         0.8521610000
 s    1  1.00
        0.3258400000         1.0000000000
 s    1  1.00
        0.1027410000         1.0000000000

  12 0
 s    6  1.00
     4563.2400000000         0.0019666500
      682.0240000000         0.0152306000
      154.9730000000         0.0761269000
       44.4553000000         0.2608010000
       13.0290000000         0.6164620000
        1.8277300000         0.2210060000
 s    3  1.00
       20.9642000000         0.1146600000
        4.8033100000         0.9199990000
        1.4593300000        -0.0030306800
 p    3  1.00
       20.9642000000         0.0402487000
        4.8033100000         0.2375940000
        1.4593300000         0.8158540000
 s    1  1.00
        0.4834560000         1.0000000000
 p    1  1.00
        0.4834560000         1.0000000000
 s    1  1.00
        0.1455850000         1.0000000000
 p    1  1.00
        0.1455850000         1.0000000000
 d    1  1.00
        0.6260000000         1.0000000000
 s    1  1.00
        0.0438000000         1.0000000000
 p    1  1.00
        0.0438000000         1.0000000000

  13 0
 s    3  1.00
       33.8650000000         0.0254938000
        5.0947900000         0.1903730000
        1.1587900000         0.8521610000
 s    1  1.00
        0.3258400000         1.0000000000
 s    1  1.00
        0.1027410000         1.0000000000

  14 0
 s    3  1.00
       33.8650000000         0.0254938000
        5.0947900000         0.1903730000
        1.1587900000         0.8521610000
 s    1  1.00
        0.3258400000         1.0000000000
 s    1  1.00
        0.1027410000         1.0000000000

[5D]
[9G]

[MO]
 Sym= A
 Ene= -1.37216227234213086e+01
 Spin= Alpha
 Occup=  1.00000000000000000e+00
  1 -4.69621212782785324e-05
  2  2.63686619543349141e-04
  3 -8.71679377934519713e-05
  4 -5.51710496042216744e-06
  5 -1.35736613826555519e-04
  6 -1.39354847685501998e-03
  7  1.31602793282856677e-03
  8 -1.07510096197305298e-05
  9  1.55642134560805639e-03
 10 -5.17384786487493369e-04
 11  1.10333688202061942e-03
 12  8.95275362455707656e-04
 13 -1.93207199928346863e-04
 14 -3.74847020558143659e-04
 15 -8.20785661047901622e-04
 16  1.86382297320651733e-04
 17  7.84354837449260375e-05
 18  2.28337470448589155e-05
 19  2.26083863080452571e-02
 20 -3.76658128770814525e-03
 21  2.13716623565191185e-03
 22 -2.06535820743664299e-02
 23 -1.43606288205036368e-04
 24 -5.11159878954209833e-04
 25  5.76726756882949064e-04
 26 -5.05422566262856768e-05
 27  3.01537521673097078e-04
 28 -7.99156945710235577e-04
 29 -1.04799437152148882e-04
 30 -2.88735024681500637e-04
 31 -1.36598899964869829e-03
 32  4.99275677677442353e-03
 33  5.79866529920117072e-04
 34  1.37604311834599227e-03
 35  3.95873456852079207e-04
 36 -1.94098653051123912e-03
 37 -6.96855887284033486e-04
 38 -4.85742045822363481e-04
 39  2.29301332369688136e-03
 40  6.87839705110456444e-04
 41  1.07408620919094731e-04
 42 -1.27421970553959749e-03
 43 -4.15632331375640450e-04
 44 -5.49100538765638219e-02
 45 -8.45180736320029317e-03
 46  2.20482622886939409e-04
 47 -1.14264271813201874e-02
 48 -3.14298766507759301e-04
 49 -3.58203991314549137e-04
 50  2.69475235855032086e-03
 51 -3.81455216279944691e-04
 52  1.72717301203973209e-03
 53 -1.96083297261861154e-03
 54  2.79235665478482947e-05
 55  2.35335122698152131e-03
 56 -6.41386720255530084e-03
 57  1.22152970237627816e-02
 58 -2.64067097996782555e-04
 59 -1.57936732447083832e-02
 60  4.05003033599289630e-03
 61 -1.17549694273163283e-03
 62  1.52077154240318484e-03
 63  1.04972558535581812e-02
 64 -6.61751123432755863e-03
 65  8.06033163660476587e-03
 66 -3.04183354017449387e-04
 67 -9.52492923907991224e-04
 68  7.25494247199027446e-04
 69 -3.14911481486221598e-02
 70  6.35878812686409105e-03
 71 -1.92995159268153260e-03
 72 -2.10060896571823748e-03
 73 -1.09488966132466250e-03
 74  7.71472649907109292e-04
 75  5.80659405259269061e-03
 76 -6.23896555263160679e-01
 77 -4.20840164890641244e-01
 78 -1.95063844357294398e-03
 79 -1.22934200732395060e-04
 80  1.56980245706009672e-03
 81  5.69332486326200246e-02
 82  1.11419436239211158e-02
 83  4.12512271860013312e-04
 84 -1.04581268464970633e-02
 85 -4.80793837841483607e-02
 86 -1.17476261380832989e-02
 87 -2.17823671377398486e-03
 88  1.13608732811317230e-03
 89  5.95634659474141102e-03
 90 -4.81904409290104425e-03
 91  8.15064902718795549e-04
 92  1.83348501700773977e-03
 93 -3.17491573081103080e-05
 94  6.10213861161914006e-02
 95  1.55953136377217326e-02
 96  5.09822830795077665e-03
 97 -6.13232146740269254e-03
 98  1.23817563053547631e-04
 99 -2.36400021225206119e-03
100  4.64094934452112529e-03
101 -7.17900197685878918e-05
102  4.28079136273289249e-04
103 -8.50356125305201682e-04
104 -3.20934828401739933e-04
105 -1.39262091606068175e-03
106 -5.19746150064175896e-04
107  2.60227520924352597e-03
108  9.07036814599202824e-04
109  4.12499750696480524e-03
110  7.95522488199331031e-03
111 -8.27000157107340853e-04
112  1.12730145345053823e-03
113 -5.57512697684979259e-03
114 -2.48327813799040882e-03
115 -2.63987522907124924e-03
116 -1.18998757802182440e-03
117 -8.41134215870949697e-04
118 -8.98461205596922004e-04
119  8.45009994925912007e-03
120  6.77126754216662938e-03
121 -6.40871036228254053e-03
122  7.29912561215591109e-03
123 -6.26563050010584661e-04
124 -1.23887803404425516e-03
125 -9.87624782052475908e-05
126 -5.74246956542962938e-04
127  3.66033060784437417e-04
128 -8.91166552008922390e-04
129 -3.53862485362644954e-05
130  2.28956257473751597e-04
131 -2.43618321242378670e-04
132 -9.57046995505332545e-06
133  4.91276124666214991e-05
134 -1.40667873358778098e-03
135  1.33172589858649793e-03
136 -1.29822915146032635e-04
137  1.64586567693194847e-04
138  1.67511185820496625e-03
139 -2.02548454916419212e-03
140 -3.02018593047644621e-03
141 -1.29112880920800584e-03
142  4.29515312471491874e-04
143  3.82489382650331197e-04
144  1.52779248322555846e-04
145 -3.17771405652721650e-04
146  2.41599987960969926e-04
147 -4.25788601524000870e-03
148  1.56107583899723068e-02
149  1.74215510524054979e-03
150 -5.75899024567385308e-03
151  3.54767208719671727e-04
152 -2.26180411154159114e-03
153 -1.91349864069430292e-04
154 -3.20307706700879329e-04
155  6.72085645054847319e-04
156  1.62456094838769969e-03
 Sym= A
 Ene= -1.15276633595082654e+01
 Spin= Alpha
 Occup=  1.00000000000000000e+00
  1  2.30264611322489147e-05
  2  1.21204422850241015e-05
  3  8.41373535728356868e-06
  4 -3.17898161613579356e-06
  5  5.91178005447184791e-06
  6  3.66679783650025111e-05
  7 -3.58540175135061068e-05
  8  6.63081683159182940e-06
  9 -4.24315062231612772e-05
 10  8.59313262267763473e-05
 11  1.88132115259106086e-05
 12  1.17348718405163953e-06
 13 -1.16065231405974109e-05
 14 -1.98251255988467509e-06
 15  2.05193051978837784e-05
 16 -2.78716098807933069e-06
 17  4.34547882337593704e-06
 18 -3.47144870998540626e-06
 19 -7.69454405477970355e-04
 20  1.41980539974664042e-04
 21  5.91945389816345068e-05
 22 -4.95830220738054410e-04
 23  5.37189969583510294e-06
 24 -4.87852322427929168e-06
 25  5.34074144210148783e-06
 26  2.53580011434580361e-03
 27  2.04879829732777666e-03
 28 -1.56596532628817655e-04
 29 -2.18928417263685642e-05
 30 -5.56492630855168209e-07
 31  2.65511378318948447e-04
 32 -1.45950686866894332e-04
 33 -1.75471002833472627e-05
 34 -1.84025305274705919e-05
 35 -8.11590243465270866e-05
 36 -5.73386407649916497e-05
 37 -9.04231090190187861e-06
 38 -9.45291628723842018e-05
 39 -9.96347555543675265e-05
 40 -3.79423771971674792e-05
 41 -7.58538135432023114e-06
 42 -5.99552399681476590e-06
 43 -3.35935938305902858e-06
 44 -1.18046953424819838e-03
 45 -6.78760748935634768e-05
 46 -1.10612613975815431e-05
 47 -1.30393685204249689e-06
 48  6.20584444118558376e-06
 49 -5.77397380598176101e-06
 50  6.57805768613606377e-06
 51  5.63588908948537859e-01
 52  4.66737573878217182e-01
 53 -4.51267841491517568e-04
 54 -2.21591951057261536e-05
 55  7.39752260449879099e-04
 56  2.91687293142098595e-03
 57  4.19072320542229141e-04
 58  1.27508814670704401e-05
 59 -6.68698397199021734e-04
 60 -1.24346376804634375e-04
 61 -2.69731143498845723e-04
 62  1.99218213597497977e-07
 63  4.86280919523516316e-04
 64  2.24187850702857943e-04
 65  1.50468193525496013e-04
 66  1.24104379492312916e-04
 67  5.33322173671508734e-04
 68  1.61456136224459102e-04
 69 -1.64278182092483034e-04
 70  8.70891089862950137e-04
 71  1.18285362432476483e-04
 72  1.10264537077300168e-04
 73  3.45206544273838538e-04
 74 -1.56584474579127465e-04
 75  5.36103460164409954e-04
 76 -3.07686387761651288e-04
 77 -3.15404835954771528e-04
 78  1.71765413666705185e-04
 79 -4.83427689820450793e-06
 80 -2.62851118902840842e-04
 81  7.17665523540601531e-04
 82  2.52781513789825075e-04
 83 -3.08020332641833873e-05
 84 -5.01118305655880105e-04
 85 -5.19203810668639079e-04
 86 -4.20490009746153165e-05
 87  3.25802742295288721e-05
 88  2.63238851345178656e-04
 89  1.28799729807674144e-04
 90 -2.59518544193068840e-04
 91 -1.32863451919878559e-05
 92 -3.32243429088787407e-05
 93 -4.10386634551321845e-05
 94 -2.31804400231882580e-04
 95 -1.88651509217117766e-04
 96 -9.14165169043874506e-05
 97 -8.81892309720727803e-04
 98  2.32171024867195790e-05
 99  4.45452418525709102e-05
100 -2.65808445525486804e-05
101 -5.69844362704871387e-05
102 -5.80324444962040137e-05
103  2.20353407171331925e-06
104  2.14664093815906979e-06
105  1.98024050393387061e-05
106  5.82315430116418553e-05
107 -2.13013353334538672e-05
108 -1.33792530341131853e-05
109 -8.31307889654191043e-05
110 -1.27608588652614773e-04
111 -1.33511578495584379e-05
112  1.74350768774573165e-05
113  1.05726047531819935e-04
114  3.39922346532573445e-05
115  1.55373887574771450e-05
116  1.15206769634667254e-05
117 -1.42266911463189422e-05
118  5.05456207315387436e-06
119  1.58354698076227664e-03
120 -2.26070268066205446e-04
121 -2.37205829791102004e-04
122 -2.16660128950087888e-04
123 -4.08780834131704331e-06
124  1.99484405870486928e-05
125 -5.42598455294470255e-05
126  2.53107205470079128e-06
127  2.66143200275528044e-05
128 -1.40608177229273920e-04
129 -1.99611223954955441e-05
130 -1.88995715157012700e-05
131  5.20373637156594056e-06
132 -3.06217651236529610e-06
133  4.71385523190733894e-06
134  5.55164289817323422e-06
135 -2.02225652924362068e-05
136  1.11717080481171587e-05
137 -1.17282562579931275e-05
138  4.50945300123653617e-05
139  1.25224989353114803e-05
140 -1.16815720342019649e-06
141  3.92201526419014724e-05
142 -5.49266659996511655e-06
143 -5.02025145595547075e-06
144 -1.64501840070543759e-06
145  4.02915277564828493e-06
146 -5.60413590661047429e-06
147  9.05239144980489051e-04
148  3.04679734207519842e-04
149  1.78278989040042820e-04
150 -2.02849472628133823e-04
151  1.75182922886295530e-06
152 -1.01541078531112581e-05
153 -2.58052284557556401e-05
154  2.10746549659155334e-06
155  7.90593217736938739e-07
156 -9.93558635929972300e-05
 Sym= A
 Ene= -1.14641907562428749e+01
 Spin= Alpha
 Occup=  1.00000000000000000e+00
  1 -4.69711960519702596e-05
  2 -3.71995112524982230e-05
  3 -6.15521855654353864e-07
  4  2.31333700223814598e-06
  5 -9.55692406075622039e-07
  6 -3.54188124292295549e-05
  7  1.91546083346610130e-05
  8 -1.81446276568794796e-06
  9 -1.54900448925599817e-05
 10 -2.28598444986506623e-05
 11 -8.04332875942249313e-05
 12 -4.01195963545807619e-05
 13  7.75741829200009096e-05
 14  1.25442994225743850e-05
 15  2.18526467763592454e-06
 16 -1.01745701542240206e-05
 17  9.30800572810892854e-06
 18 -9.95170866350346762e-06
 19 -2.43979145405356359e-03
 20  3.91555826875521857e-04
 21  3.00245958829198191e-05
 22 -3.15436478395443533e-04
 23 -1.24852918237886139e-07
 24  2.14778600749529498e-05
 25  1.00065232985847058e-04
 26 -6.22708257250014613e-05
 27 -5.06810932311063930e-05
 28  1.02137417414089948e-05
 29  3.92932762476417624e-06
 30  5.69818999724058865e-06
 31 -2.38491223722572502e-05
 32 -5.65874552057322040e-05
 33 -2.02839204191188941e-05
 34 -3.97976594007819413e-05
 35  3.58471362276871009e-04
 36 -1.14453074579800977e-04
 37  5.19726570050932670e-06
 38  1.51841904837212886e-04
 39 -2.03504326166782800e-05
 40 -4.62562097816531192e-06
 41  8.30477542970696727e-08
 42  2.23728367718975559e-05
 43  3.10498400971836339e-06
 44  1.98836854199196901e-03
 45 -3.17128624763346652e-04
 46  8.79300549701822927e-06
 47  3.21842733390173758e-04
 48 -2.20916553405833355e-06
 49  2.37647615703601618e-05
 50  1.44959127671988730e-05
 51  6.43662086973101794e-05
 52  4.40406853512579418e-05
 53  8.30704397843949354e-06
 54  2.89074418231044317e-06
 55 -3.94589925707309634e-06
 56  7.74562458839250084e-05
 57 -6.70411757911531023e-05
 58 -1.03849892704530118e-05
 59  6.06868317167786071e-05
 60 -5.59480968262619175e-04
 61 -2.75860215277888674e-04
 62 -5.76641172707363165e-05
 63 -3.85999401467305731e-04
 64  4.15976685151322440e-05
 65 -4.47115925671592740e-05
 66  3.63666839296254236e-06
 67 -2.21404431429155865e-05
 68 -1.12742960301946668e-05
 69 -1.89072072169583854e-03
 70 -2.85404847890249555e-04
 71 -1.06555260481335542e-04
 72 -2.86368610343314253e-04
 73  1.61281941751374478e-05
 74 -7.84105306632234227e-05
 75 -8.26621441874740559e-05
 76 -1.26336250335172952e-04
 77 -1.76699157255216143e-04
 78  6.30513324637647465e-05
 79  2.63751977615134071e-05
 80  1.01829969845057322e-04
 81  3.68225633103096660e-04
 82  2.87761313558593408e-04
 83  1.37910952478298936e-04
 84  6.88936926837678239e-04
 85  1.25195233298298556e-03
 86  6.20629840593455015e-04
 87  1.09611554854489670e-04
 88  2.75292728464410111e-04
 89  2.06287469005762191e-04
 90  3.03437108097073382e-04
 91  1.03507605574212043e-04
 92  5.22095279355835632e-05
 93  6.03742689743675404e-05
 94  2.02713282605600925e-03
 95  2.64522855581959988e-04
 96  1.28887075836045398e-04
 97  1.97272280511790057e-04
 98  1.11246242499199518e-05
 99  5.00394416547726969e-05
100  1.05980852677724677e-04
101  5.63481691675447371e-01
102  4.66590212840845842e-01
103 -5.01024814146974534e-04
104 -3.26630550826091128e-04
105 -1.17851734527520428e-03
106  4.01459698066745918e-03
107  4.27924848499682128e-04
108  3.08513638101561667e-04
109  1.06794156855273114e-03
110 -2.97699081087075433e-03
111 -3.46203233806474404e-04
112 -1.39881578883335437e-05
113 -2.10134758889727058e-05
114 -2.91191478952820436e-04
115 -3.73936006531697660e-04
116 -1.94843381928858376e-04
117 -1.22061537887129974e-04
118 -2.90883758410442913e-05
119 -3.03851628450817809e-03
120 -3.09622891111085473e-05
121  8.92441032201325430e-05
122  4.02117122942638450e-04
123  3.05223073118313733e-04
124  1.84897734379871451e-04
125  7.03940544564364860e-04
126  3.02378552547412187e-04
127  1.10866759305322223e-04
128  6.99360747536684896e-04
129  3.69091171971282607e-03
130  3.00528920049641848e-03
131 -1.13235093707911557e-04
132  4.63780112048620661e-05
133  9.68637000979388340e-06
134  2.40811228153689038e-04
135 -2.63695157814007564e-04
136  5.36283885758637486e-05
137 -4.06665687927011034e-05
138  7.63620283779612233e-04
139 -3.65974484951200483e-04
140  2.36416804910906842e-04
141  1.68265708041254441e-04
142 -4.70766371223568201e-05
143  4.48827604638089777e-05
144  2.92645188757644310e-06
145  8.06275746789423582e-05
146 -3.86689656270776977e-05
147  2.95230220595193429e-03
148 -1.15474733089549771e-04
149  2.48411804411779731e-04
150 -5.12510663369529756e-04
151 -6.10698660843676476e-06
152  1.93377117645006281e-05
153 -3.86973390295356997e-05
154  4.33104999326507483e-06
155 -7.24359280811450910e-05
156 -1.27944062212836804e-04
 Sym= A
 Ene= -1.14362543642287147e+01
 Spin= Alpha
 Occup=  1.00000000000000000e+00
  1 -5.46220760065260880e-01
  2 -4.52314129524793440e-01
  3  1.47629424938560257e-04
  4  4.26369150923145356e-05
  5 -8.36542665049088487e-05
  6 -3.23060225226564452e-03
  7  7.76110545564174106e-06
  8 -3.42398717532094773e-05
  9  3.27214757406926173e-04
 10 -3.85597414550602072e-04
 11  3.21524443279581614e-04
 12  4.43999886352854565e-06
 13  5.50387138514661696e-05
 14 -3.51178468612385662e-04
 15 -2.24812676752277876e-04
 16  1.36265983709145985e-04
 17 -6.03407641856555351e-04
 18 -1.12849626104723558e-04
 19  2.02953635593092815e-03
 20  6.85717682599640461e-05
 21  1.43918807921370823e-04
 22 -6.77881951885652437e-05
 23 -3.57100927576377910e-04
 24  1.47475371726598985e-04
 25 -4.33311072688347880e-04
 26 -1.37917058237286727e-01
 27 -1.14173060057987233e-01
 28  5.04571316399740153e-05
 29  2.60112510780277286e-05
 30 -1.98070140479125978e-04
 31 -1.57014824979039513e-03
 32 -2.17181233339983667e-04
 33 -1.75181623049521191e-05
 34 -1.33352443131405966e-04
 35  1.14980889004457926e-03
 36  3.40793469323355660e-06
 37 -7.80742111952450911e-06
 38  3.57491510117903630e-04
 39 -6.67672161639039894e-05
 40 -1.30634499442359726e-04
 41 -1.60811322459212221e-05
 42  9.87804736838334221e-05
 43  4.34177788392172280e-05
 44 -1.77069168670504354e-03
 45 -2.00951671052056636e-04
 46 -4.46498898230804453e-05
 47 -7.76798010352711837e-04
 48 -1.10435241609160422e-04
 49  4.19834428272732578e-05
 50 -5.45496731704106115e-05
 51  6.70238568640678899e-04
 52  5.80294486094958635e-04
 53 -1.96519898944309297e-05
 54 -2.20391918298668126e-06
 55  4.45491267897996624e-06
 56 -8.55782972716035730e-05
 57 -1.68086336710278409e-04
 58 -1.92998299144244374e-05
 59 -8.38161960493880463e-06
 60 -5.38754098351131505e-04
 61 -6.13335105118620224e-05
 62 -3.68063359840233853e-05
 63 -3.05634899324065787e-04
 64  4.94663951781047886e-05
 65 -4.28233705097237112e-05
 66 -7.14273344125471879e-06
 67 -3.38930646119586080e-05
 68 -5.44237963167693274e-06
 69  2.91418331690789520e-03
 70 -5.38248830736633090e-04
 71 -1.64408442228487278e-05
 72  7.84415208450672742e-04
 73  5.11702777306320172e-07
 74 -3.58849110211248689e-05
 75 -9.88271046496296950e-05
 76 -6.08677041927714098e-06
 77  1.89781193188780767e-06
 78  7.41093405827226788e-06
 79 -1.73384639733330660e-07
 80 -2.27312066188731802e-06
 81 -4.47278967010663394e-05
 82 -1.92368070962624630e-05
 83  3.70304819137436565e-06
 84  2.32031013298625183e-05
 85  4.41811079807056650e-04
 86  2.82925245751328635e-04
 87  3.25452974882893949e-05
 88 -9.27372315130497554e-05
 89 -1.07108533634278098e-05
 90  6.08204950710825301e-06
 91 -2.03290748927101286e-06
 92 -3.08095144654845168e-07
 93  3.45289832207032243e-06
 94 -1.49265902227312640e-03
 95 -1.81608679695534543e-04
 96  9.13397936891525145e-05
 97  1.10278220580922932e-03
 98 -8.24185402768471858e-06
 99  3.28044330199301338e-05
100  7.24635742603324295e-05
101  1.07073202381625184e-05
102  1.40600641368992345e-05
103  1.32554397084771512e-05
104 -7.56426673401526477e-06
105 -5.94058472403127626e-06
106  1.02375225142618780e-05
107 -5.43268853792485147e-05
108  3.42419619142525080e-05
109  1.96867939779784270e-05
110 -3.88744495159014652e-04
111 -1.13264192328127347e-04
112 -3.32667553473078436e-05
113  4.00878395757699066e-05
114  1.94234135783911252e-05
115  3.96020731150649410e-06
116 -8.91701443894199168e-06
117 -1.54627922178904286e-05
118  2.38945719837934543e-05
119 -1.95762382021045047e-04
120  6.61714536441202102e-04
121  1.71447189072972312e-04
122  1.83863722021777339e-04
123 -9.19687138427494557e-06
124  7.32357286718394871e-05
125  9.83798165865417269e-06
126 -6.49498149976088163e-06
127 -3.96249043513498137e-06
128  8.35798010193176418e-05
129 -1.11468061731715383e-02
130 -9.16279122421085473e-03
131 -4.28814036399246780e-05
132 -3.37518676678808517e-05
133  1.05536428464049275e-04
134 -4.21826395546881310e-04
135 -1.61773468457907107e-04
136 -4.79326729677853944e-05
137  2.63025746851293276e-04
138  5.74999022701021918e-04
139 -4.40875265091479119e-05
140  1.36308226306512670e-04
141 -1.38860394700455569e-04
142 -9.36852412936256730e-05
143  1.03278476463035214e-04
144  3.66935665142215770e-05
145  4.20921034940096840e-05
146 -2.91908393825250376e-05
147 -1.69853620067025174e-03
148  5.95011551781137111e-05
149 -3.64040317278399074e-04
150  1.28274810513520041e-04
151  5.12090557087556192e-06
152 -3.89480449125292015e-05
153  9.60932433927607829e-05
154 -5.23440751232768778e-06
155 -1.10224185757102280e-04
156  1.73125645573209629e-04
 Sym= A
 Ene= -1.14329847984024937e+01
 Spin= Alpha
 Occup=  1.00000000000000000e+00
  1  1.38185972487169934e-01
  2  1.14462260287656381e-01
  3  1.18945934818987051e-04
  4 -2.49132042538662892e-05
  5  2.91743011166553320e-04
  6  6.32490685062118995e-04
  7 -1.20635654848353413e-04
  8  1.79689724657754728e-05
  9 -3.48005208290674123e-04
 10 -2.69383758394793409e-04
 11  2.92500641009189313e-04
 12 -1.28693719268135133e-05
 13  1.77536310897399624e-04
 14  1.94643280274720058e-04
 15  1.45184750073757443e-04
 16 -4.99047386255160310e-05
 17  2.30489337783540188e-04
 18  4.12802590382610268e-05
 19  2.77653318997548399e-03
 20 -3.39648820969897923e-04
 21  7.39880204432377572e-05
 22 -3.92934184159607054e-04
 23  1.08708997391775890e-04
 24 -5.42938372966114696e-05
 25 -9.65769868507431367e-05
 26 -5.46001964727758304e-01
 27 -4.52261957783442969e-01
 28  6.91818942978755596e-04
 29  7.07217058978062887e-05
 30  7.51551387521120216e-05
 31 -5.02215633766380388e-03
 32 -7.07961236913857246e-04
 33 -3.39869330756857295e-05
 34 -4.87955488650360667e-04
 35  1.79346404677731470e-03
 36 -6.54186042978709012e-05
 37 -4.66833474005408432e-05
 38  5.57662015706955486e-04
 39 -2.99033442057220129e-04
 40 -2.58881954867340393e-04
 41  1.89608229665523251e-05
 42 -1.75753132353923634e-05
 43  3.43869119587867790e-05
 44 -3.91866829564765148e-03
 45  6.21623030754636299e-05
 46  9.83940796286452779e-05
 47 -1.24302726300559632e-03
 48 -3.90811514528438433e-04
 49  1.86713753353578846e-04
 50 -3.06617873695482304e-04
 51  2.57844861966732624e-03
 52  2.21866119249221599e-03
 53 -1.50418510222194771e-04
 54 -2.15517442267991832e-05
 55 -1.03170584260108078e-05
 56 -3.17968121039392012e-04
 57 -4.32395603106926240e-04
 58 -5.93506121515371081e-05
 59  4.53223218150241775e-05
 60 -8.95310346489561616e-04
 61 -2.68494540070348558e-04
 62 -7.23396158137122928e-05
 63 -6.08421130227921919e-04
 64  1.56883354290200146e-04
 65 -4.20267686162937538e-05
 66 -8.16694603077075763e-06
 67 -1.04482173666214730e-04
 68 -2.62104999574946187e-05
 69  3.46063351401203765e-03
 70 -2.61325988518175162e-04
 71 -4.86768719814126462e-05
 72  7.68558731202183135e-04
 73  3.34853186169333465e-06
 74 -8.50336712345810714e-05
 75 -2.08219443318710754e-04
 76 -9.71580762351150501e-06
 77  1.07589001669624323e-06
 78  5.17632488665143669e-06
 79 -4.10622115388861775e-06
 80 -9.73006406475352591e-06
 81 -6.79839712596614590e-05
 82 -1.33295180823963506e-05
 83  2.37557655835859696e-05
 84  5.59768445979459578e-05
 85  7.56409390849941917e-04
 86  4.25614932131262471e-04
 87  2.96389556596983656e-05
 88 -4.90079267880653798e-05
 89 -2.89354519119137401e-06