[Molden Format]
[Atoms] (AU)
C    1    6         2.692996544949       0.121705921384      -0.214878868000
H    2    1         4.736250256935       0.348478914590      -0.219160987400
C    3    6         1.372372402584       0.196467266359      -2.381511097964
H    4    1         2.319246322883       0.513610742337      -4.178212053389
C    5    6        -1.372372402584      -0.196467266359      -2.381511097964
H    6    1        -2.319246322883      -0.513610742337      -4.178212053389
C    7    6        -2.692996544949      -0.121705921384      -0.214878868000
H    8    1        -4.736250256935      -0.348478914590      -0.219160987400
C    9    6        -1.382905736008       0.452434638477       2.258843117009
H   10    1        -1.442483131565       2.513277921239       2.573556405189
H   11    1        -2.403940257347      -0.396593231470       3.849140815080
C   12    6         1.382905736008      -0.452434638477       2.258843117009
H   13    1         1.442483131565      -2.513277921239       2.573556405189
H   14    1         2.403940257347       0.396593231470       3.849140815080
[GTO]
  1 0
 s    6  1.00
     4563.2400000000         0.0019666500
      682.0240000000         0.0152306000
      154.9730000000         0.0761269000
       44.4553000000         0.2608010000
       13.0290000000         0.6164620000
        1.8277300000         0.2210060000
 s    3  1.00
       20.9642000000         0.1146600000
        4.8033100000         0.9199990000
        1.4593300000        -0.0030306800
 p    3  1.00
       20.9642000000         0.0402487000
        4.8033100000         0.2375940000
        1.4593300000         0.8158540000
 s    1  1.00
        0.4834560000         1.0000000000
 p    1  1.00
        0.4834560000         1.0000000000
 s    1  1.00
        0.1455850000         1.0000000000
 p    1  1.00
        0.1455850000         1.0000000000
 d    1  1.00
        0.6260000000         1.0000000000
 s    1  1.00
        0.0438000000         1.0000000000
 p    1  1.00
        0.0438000000         1.0000000000

  2 0
 s    3  1.00
       33.8650000000         0.0254938000
        5.0947900000         0.1903730000
        1.1587900000         0.8521610000
 s    1  1.00
        0.3258400000         1.0000000000
 s    1  1.00
        0.1027410000         1.0000000000

  3 0
 s    6  1.00
     4563.2400000000         0.0019666500
      682.0240000000         0.0152306000
      154.9730000000         0.0761269000
       44.4553000000         0.2608010000
       13.0290000000         0.6164620000
        1.8277300000         0.2210060000
 s    3  1.00
       20.9642000000         0.1146600000
        4.8033100000         0.9199990000
        1.4593300000        -0.0030306800
 p    3  1.00
       20.9642000000         0.0402487000
        4.8033100000         0.2375940000
        1.4593300000         0.8158540000
 s    1  1.00
        0.4834560000         1.0000000000
 p    1  1.00
        0.4834560000         1.0000000000
 s    1  1.00
        0.1455850000         1.0000000000
 p    1  1.00
        0.1455850000         1.0000000000
 d    1  1.00
        0.6260000000         1.0000000000
 s    1  1.00
        0.0438000000         1.0000000000
 p    1  1.00
        0.0438000000         1.0000000000

  4 0
 s    3  1.00
       33.8650000000         0.0254938000
        5.0947900000         0.1903730000
        1.1587900000         0.8521610000
 s    1  1.00
        0.3258400000         1.0000000000
 s    1  1.00
        0.1027410000         1.0000000000

  5 0
 s    6  1.00
     4563.2400000000         0.0019666500
      682.0240000000         0.0152306000
      154.9730000000         0.0761269000
       44.4553000000         0.2608010000
       13.0290000000         0.6164620000
        1.8277300000         0.2210060000
 s    3  1.00
       20.9642000000         0.1146600000
        4.8033100000         0.9199990000
        1.4593300000        -0.0030306800
 p    3  1.00
       20.9642000000         0.0402487000
        4.8033100000         0.2375940000
        1.4593300000         0.8158540000
 s    1  1.00
        0.4834560000         1.0000000000
 p    1  1.00
        0.4834560000         1.0000000000
 s    1  1.00
        0.1455850000         1.0000000000
 p    1  1.00
        0.1455850000         1.0000000000
 d    1  1.00
        0.6260000000         1.0000000000
 s    1  1.00
        0.0438000000         1.0000000000
 p    1  1.00
        0.0438000000         1.0000000000

  6 0
 s    3  1.00
       33.8650000000         0.0254938000
        5.0947900000         0.1903730000
        1.1587900000         0.8521610000
 s    1  1.00
        0.3258400000         1.0000000000
 s    1  1.00
        0.1027410000         1.0000000000

  7 0
 s    6  1.00
     4563.2400000000         0.0019666500
      682.0240000000         0.0152306000
      154.9730000000         0.0761269000
       44.4553000000         0.2608010000
       13.0290000000         0.6164620000
        1.8277300000         0.2210060000
 s    3  1.00
       20.9642000000         0.1146600000
        4.8033100000         0.9199990000
        1.4593300000        -0.0030306800
 p    3  1.00
       20.9642000000         0.0402487000
        4.8033100000         0.2375940000
        1.4593300000         0.8158540000
 s    1  1.00
        0.4834560000         1.0000000000
 p    1  1.00
        0.4834560000         1.0000000000
 s    1  1.00
        0.1455850000         1.0000000000
 p    1  1.00
        0.1455850000         1.0000000000
 d    1  1.00
        0.6260000000         1.0000000000
 s    1  1.00
        0.0438000000         1.0000000000
 p    1  1.00
        0.0438000000         1.0000000000

  8 0
 s    3  1.00
       33.8650000000         0.0254938000
        5.0947900000         0.1903730000
        1.1587900000         0.8521610000
 s    1  1.00
        0.3258400000         1.0000000000
 s    1  1.00
        0.1027410000         1.0000000000

  9 0
 s    6  1.00
     4563.2400000000         0.0019666500
      682.0240000000         0.0152306000
      154.9730000000         0.0761269000
       44.4553000000         0.2608010000
       13.0290000000         0.6164620000
        1.8277300000         0.2210060000
 s    3  1.00
       20.9642000000         0.1146600000
        4.8033100000         0.9199990000
        1.4593300000        -0.0030306800
 p    3  1.00
       20.9642000000         0.0402487000
        4.8033100000         0.2375940000
        1.4593300000         0.8158540000
 s    1  1.00
        0.4834560000         1.0000000000
 p    1  1.00
        0.4834560000         1.0000000000
 s    1  1.00
        0.1455850000         1.0000000000
 p    1  1.00
        0.1455850000         1.0000000000
 d    1  1.00
        0.6260000000         1.0000000000
 s    1  1.00
        0.0438000000         1.0000000000
 p    1  1.00
        0.0438000000         1.0000000000

  10 0
 s    3  1.00
       33.8650000000         0.0254938000
        5.0947900000         0.1903730000
        1.1587900000         0.8521610000
 s    1  1.00
        0.3258400000         1.0000000000
 s    1  1.00
        0.1027410000         1.0000000000

  11 0
 s    3  1.00
       33.8650000000         0.0254938000
        5.0947900000         0.1903730000
        1.1587900000         0.8521610000
 s    1  1.00
        0.3258400000         1.0000000000
 s    1  1.00
        0.1027410000         1.0000000000

  12 0
 s    6  1.00
     4563.2400000000         0.0019666500
      682.0240000000         0.0152306000
      154.9730000000         0.0761269000
       44.4553000000         0.2608010000
       13.0290000000         0.6164620000
        1.8277300000         0.2210060000
 s    3  1.00
       20.9642000000         0.1146600000
        4.8033100000         0.9199990000
        1.4593300000        -0.0030306800
 p    3  1.00
       20.9642000000         0.0402487000
        4.8033100000         0.2375940000
        1.4593300000         0.8158540000
 s    1  1.00
        0.4834560000         1.0000000000
 p    1  1.00
        0.4834560000         1.0000000000
 s    1  1.00
        0.1455850000         1.0000000000
 p    1  1.00
        0.1455850000         1.0000000000
 d    1  1.00
        0.6260000000         1.0000000000
 s    1  1.00
        0.0438000000         1.0000000000
 p    1  1.00
        0.0438000000         1.0000000000

  13 0
 s    3  1.00
       33.8650000000         0.0254938000
        5.0947900000         0.1903730000
        1.1587900000         0.8521610000
 s    1  1.00
        0.3258400000         1.0000000000
 s    1  1.00
        0.1027410000         1.0000000000

  14 0
 s    3  1.00
       33.8650000000         0.0254938000
        5.0947900000         0.1903730000
        1.1587900000         0.8521610000
 s    1  1.00
        0.3258400000         1.0000000000
 s    1  1.00
        0.1027410000         1.0000000000

[5D]
[9G]

[MO]
 Sym= A
 Ene= -1.37216227237975215e+01
 Spin= Alpha
 Occup=  1.00000000000000000e+00
  1  6.23896555265889607e-01
  2  4.20840164888834189e-01
  3 -1.95063844261193341e-03
  4 -1.22934200450126982e-04
  5 -1.56980245709081217e-03
  6 -5.69332486363327353e-02
  7  1.11419436241452507e-02
  8  4.12512271620482857e-04
  9  1.04581268469800363e-02
 10  4.80793837865885476e-02
 11 -1.17476261379726270e-02
 12 -2.17823671369518504e-03
 13 -1.13608732810623601e-03
 14 -5.95634659524057510e-03
 15 -4.81904409318883314e-03
 16  8.15064902866663703e-04
 17 -1.83348501705025589e-03
 18  3.17491574313588670e-05
 19 -6.10213861117399614e-02
 20  1.55953136377026142e-02
 21  5.09822830822749280e-03
 22  6.13232146802265322e-03
 23 -1.23817563114376279e-04
 24  2.36400021227670381e-03
 25 -4.64094934523212946e-03
 26  3.81455216266086364e-04
 27 -1.72717301216581244e-03
 28 -1.96083297275567465e-03
 29  2.79235665484008414e-05
 30 -2.35335122712940258e-03
 31  6.41386720286818857e-03
 32  1.22152970243825567e-02
 33 -2.64067097952092229e-04
 34  1.57936732455158275e-02
 35 -4.05003033594029688e-03
 36 -1.17549694276232485e-03
 37  1.52077154247578952e-03
 38 -1.04972558539578875e-02
 39  6.61751123467455623e-03
 40  8.06033163701705933e-03
 41 -3.04183353993428562e-04
 42  9.52492923984869289e-04
 43 -7.25494247208055597e-04
 44  3.14911481479447086e-02
 45  6.35878812627716210e-03
 46 -1.92995159296106855e-03
 47  2.10060896388867754e-03
 48  1.09488966138016411e-03
 49 -7.71472649941895377e-04
 50 -5.80659405287897810e-03
 51  5.05422566182497601e-05
 52 -3.01537521698077746e-04
 53 -7.99156945754186422e-04
 54 -1.04799437155046440e-04
 55  2.88735024692125548e-04
 56  1.36598899974447519e-03
 57  4.99275677701568280e-03
 58  5.79866529947451977e-04
 59 -1.37604311840712110e-03
 60 -3.95873457261091332e-04
 61 -1.94098653041952516e-03
 62 -6.96855887301939736e-04
 63  4.85742045717031071e-04
 64 -2.29301332381425275e-03
 65  6.87839705157404784e-04
 66  1.07408620918628917e-04
 67  1.27421970561627834e-03
 68  4.15632331398441818e-04
 69  5.49100538910911734e-02
 70 -8.45180736658247833e-03
 71  2.20482622733116979e-04
 72  1.14264271854114131e-02
 73  3.14298766515825440e-04
 74  3.58203991397863407e-04
 75 -2.69475235882698626e-03
 76  4.69621212838038706e-05
 77 -2.63686619555165644e-04
 78 -8.71679377962063598e-05
 79 -5.51710496584839772e-06
 80  1.35736613830576255e-04
 81  1.39354847688158228e-03
 82  1.31602793289302498e-03
 83 -1.07510096142081427e-05
 84 -1.55642134568596976e-03
 85  5.17384786886620064e-04
 86  1.10333688216747807e-03
 87  8.95275362430886798e-04
 88  1.93207199740867843e-04
 89  3.74847020582707831e-04
 90 -8.20785661092025723e-04
 91  1.86382297327072541e-04
 92 -7.84354837390100477e-05
 93 -2.28337470470972340e-05
 94 -2.26083863206616408e-02
 95 -3.76658128949762397e-03
 96  2.13716623621045682e-03
 97  2.06535820796098918e-02
 98  1.43606288215380388e-04
 99  5.11159878939959731e-04
100 -5.76726756777299200e-04
101  3.53862485513517175e-05
102 -2.28956257476217045e-04
103 -2.43618321256537862e-04
104 -9.57046995465246202e-06
105 -4.91276124640258445e-05
106  1.40667873362571158e-03
107  1.33172589865456631e-03
108 -1.29822915149047883e-04
109 -1.64586567704873087e-04
110 -1.67511185824629214e-03
111 -2.02548454932571266e-03
112 -3.02018593051639255e-03
113  1.29112880924726718e-03
114 -4.29515312492427873e-04
115  3.82489382664494509e-04
116  1.52779248332719672e-04
117  3.17771405672474404e-04
118 -2.41599987969394123e-04
119  4.25788601848494340e-03
120  1.56107583930824301e-02
121  1.74215510518845496e-03
122  5.75899024597490653e-03
123 -3.54767208735000286e-04
124  2.26180411162607087e-03
125  1.91349863942288370e-04
126  3.20307706711900027e-04
127 -6.72085645047140485e-04
128 -1.62456094855105340e-03
129  7.17900197686179785e-05
130 -4.28079136306467787e-04
131 -8.50356125364540067e-04
132 -3.20934828426010232e-04
133  1.39262091612821193e-03
134  5.19746150052203377e-04
135  2.60227520943625201e-03
136  9.07036814662527170e-04
137 -4.12499750714069580e-03
138 -7.95522488206762760e-03
139 -8.27000157318093601e-04
140  1.12730145346819316e-03
141  5.57512697687395555e-03
142  2.48327813808761275e-03
143 -2.63987522923350313e-03
144 -1.18998757809903608e-03
145  8.41134215929626177e-04
146  8.98461205650630560e-04
147 -8.45009995848714987e-03
148  6.77126754314831460e-03
149 -6.40871036357658439e-03
150 -7.29912561158211140e-03
151  6.26563050060108956e-04
152  1.23887803402230332e-03
153  9.87624785193250496e-05
154  5.74246956588093287e-04
155 -3.66033060848912264e-04
156  8.91166552528893934e-04
 Sym= A
 Ene= -1.15276633594951257e+01
 Spin= Alpha
 Occup=  1.00000000000000000e+00
  1 -3.07686387699278492e-04
  2 -3.15404835878151340e-04
  3 -1.71765413690036050e-04
  4  4.83427689481734345e-06
  5 -2.62851118959994234e-04
  6  7.17665523474473330e-04
  7 -2.52781513668168430e-04
  8  3.08020332495414538e-05
  9 -5.01118305312996180e-04
 10 -5.19203810065123361e-04
 11  4.20490006403270351e-05
 12 -3.25802742869580516e-05
 13  2.63238851420315276e-04
 14  1.28799729690298498e-04
 15  2.59518543980548626e-04
 16  1.32863451739652987e-05
 17 -3.32243428530303755e-05
 18 -4.10386634013234475e-05
 19 -2.31804390593718724e-04
 20  1.88651507563261081e-04
 21  9.14165174695711469e-05
 22 -8.81892313377435118e-04
 23  2.32171024458410676e-05
 24  4.45452418661562412e-05
 25 -2.65808444029261107e-05
 26  5.63588908948240874e-01
 27  4.66737573877644252e-01
 28  4.51267840496170968e-04
 29  2.21591949149538899e-05
 30  7.39752260704294078e-04
 31  2.91687293373430389e-03
 32 -4.19072319468183287e-04
 33 -1.27508814738972732e-05
 34 -6.68698397112411002e-04
 35 -1.24346379207362429e-04
 36  2.69731143863949125e-04
 37 -1.99218072031699759e-07
 38  4.86280918801355920e-04
 39  2.24187850388119907e-04
 40 -1.50468193447003218e-04
 41 -1.24104379062370078e-04
 42  5.33322172351173292e-04
 43  1.61456135770260628e-04
 44 -1.64278189608842124e-04
 45 -8.70891092735825469e-04
 46 -1.18285362772092460e-04
 47  1.10264534258865596e-04
 48  3.45206544243602958e-04
 49 -1.56584474685665209e-04
 50  5.36103460249722353e-04
 51  2.53580012346640718e-03
 52  2.04879830482339364e-03
 53  1.56596532606132459e-04
 54  2.18928417209720190e-05
 55 -5.56492645491721143e-07
 56  2.65511378401384242e-04
 57  1.45950687333859720e-04
 58  1.75471003499337899e-05
 59 -1.84025305511331078e-05
 60 -8.11590215200359296e-05
 61  5.73386417682786892e-05
 62  9.04231114223119064e-06
 63 -9.45291616078812680e-05
 64 -9.96347557519166026e-05
 65  3.79423772512065482e-05
 66  7.58538135927040688e-06
 67 -5.99552400583863056e-06
 68 -3.35935939107170234e-06
 69 -1.18046953247259202e-03
 70  6.78760728477108266e-05
 71  1.10612611217909036e-05
 72 -1.30393502720972517e-06
 73  6.20584444939341687e-06
 74 -5.77397362338215653e-06
 75  6.57805797709843210e-06
 76  2.30264611096161673e-05
 77  1.21204422487260360e-05
 78 -8.41373533121879958e-06
 79  3.17898161678034031e-06
 80  5.91178004129128934e-06
 81  3.66679785670626475e-05
 82  3.58540174833011085e-05
 83 -6.63081685668488231e-06
 84 -4.24315062419778296e-05
 85  8.59313243353902788e-05
 86 -1.88132127003849312e-05
 87 -1.17348732946292760e-06
 88 -1.16065231406689293e-05
 89 -1.98251251992689827e-06
 90 -2.05193052077921598e-05
 91  2.78716099495538449e-06
 92  4.34547880101925032e-06
 93 -3.47144872253685737e-06
 94 -7.69454408858153424e-04
 95 -1.41980540481520073e-04
 96 -5.91945385445598275e-05
 97 -4.95830218793789131e-04
 98  5.37189970890491619e-06
 99 -4.87852333398823737e-06
100  5.34074106344838276e-06
101 -1.99611223826506724e-05
102 -1.88995715001830606e-05
103 -5.20373636383615844e-06
104  3.06217651147057520e-06
105  4.71385524407277172e-06
106  5.55164283833652205e-06
107  2.02225652406234318e-05
108 -1.11717080436495614e-05
109 -1.17282563103441378e-05
110  4.50945309709230714e-05
111 -1.25224988579679498e-05
112  1.16815713328708713e-06
113  3.92201523231206972e-05
114 -5.49266657591107661e-06
115  5.02025146314915979e-06
116  1.64501841099656052e-06
117  4.02915276221032830e-06
118 -5.60413590745406405e-06
119  9.05239147795158772e-04
120 -3.04679732413029993e-04
121 -1.78278989496329630e-04
122 -2.02849472140595645e-04
123  1.75182922315730834e-06
124 -1.01541078843672313e-05
125 -2.58052285371622080e-05
126  2.10746549890186323e-06
127  7.90593167880047632e-07
128 -9.93558635855058673e-05
129 -5.69844364286883429e-05
130 -5.80324446145560310e-05
131 -2.20353407169249537e-06
132 -2.14664094092852491e-06
133  1.98024050118229459e-05
134  5.82315429851014061e-05
135  2.13013353274711651e-05
136  1.33792530291340342e-05
137 -8.31307888279752150e-05
138 -1.27608589251539410e-04
139  1.33511577628518950e-05
140 -1.74350770643114633e-05
141  1.05726047536543926e-04
142  3.39922345991190982e-05
143 -1.55373887194329752e-05
144 -1.15206769449534464e-05
145 -1.42266911403814547e-05
146  5.05456206421323746e-06
147  1.58354697747256786e-03
148  2.26070270285042512e-04
149  2.37205829333713482e-04
150 -2.16660129134816016e-04
151 -4.08780833457159563e-06
152  1.99484405374136768e-05
153 -5.42598454641627742e-05
154  2.53107203763636389e-06
155  2.66143201006053947e-05
156 -1.40608176981596173e-04
 Sym= A
 Ene= -1.14641907559317922e+01
 Spin= Alpha
 Occup=  1.00000000000000000e+00
  1 -1.26336250328618950e-04
  2 -1.76699157258729690e-04
  3 -6.30513324957524104e-05
  4 -2.63751977714583024e-05
  5  1.01829969918054838e-04
  6  3.68225633095317726e-04
  7 -2.87761313590697773e-04
  8 -1.37910952470929289e-04
  9  6.88936926798317906e-04
 10  1.25195233409071903e-03
 11 -6.20629841412546229e-04
 12 -1.09611555004763344e-04
 13  2.75292729049665316e-04
 14  2.06287469066480494e-04
 15 -3.03437108049071360e-04
 16 -1.03507605569178350e-04
 17  5.22095279449475937e-05
 18  6.03742689733124084e-05
 19  2.02713282314373683e-03
 20 -2.64522852545998261e-04
 21 -1.28887073620221113e-04
 22  1.97272267729666525e-04
 23  1.11246242612523294e-05
 24  5.00394416393729603e-05
 25  1.05980853194060295e-04
 26  6.43662088577569763e-05
 27  4.40406854900554033e-05
 28 -8.30704396304863723e-06
 29 -2.89074418594307949e-06
 30 -3.94589924347782028e-06
 31  7.74562459252212121e-05
 32  6.70411757005455000e-05
 33  1.03849892856585237e-05
 34  6.06868315962119374e-05
 35 -5.59480969596078451e-04
 36  2.75860216243656667e-04
 37  5.76641173914585760e-05
 38 -3.85999401578595344e-04
 39  4.15976685231290956e-05
 40  4.47115925261248306e-05
 41 -3.63666839773792354e-06
 42 -2.21404431780747993e-05
 43 -1.12742960337624695e-05
 44 -1.89072070925404333e-03
 45  2.85404832256647720e-04
 46  1.06555258650329601e-04
 47 -2.86368616333093347e-04
 48  1.61281941638633715e-05
 49 -7.84105306601033734e-05
 50 -8.26621444577512918e-05
 51 -6.22708268220541943e-05
 52 -5.06810941289391993e-05
 53 -1.02137417414139736e-05
 54 -3.92932763096649961e-06
 55  5.69819000226880239e-06
 56 -2.38491224878348518e-05
 57  5.65874552162788145e-05
 58  2.02839204272638342e-05
 59 -3.97976594645577420e-05
 60  3.58471362796457553e-04
 61  1.14453075474149279e-04
 62 -5.19726559854879108e-06
 63  1.51841904698405409e-04
 64 -2.03504326463301184e-05
 65  4.62562099303035898e-06
 66 -8.30477525199566049e-08
 67  2.23728368168543446e-05
 68  3.10498401935898619e-06
 69  1.98836853177043141e-03
 70  3.17128610293264238e-04
 71 -8.79300736453088421e-06
 72  3.21842740477931277e-04
 73 -2.20916554298290307e-06
 74  2.37647615847279988e-05
 75  1.44959130281575725e-05
 76 -4.69711960936252936e-05
 77 -3.71995112710639180e-05
 78  6.15521855464829395e-07
 79 -2.31333700246852581e-06
 80 -9.55692395180775951e-07
 81 -3.54188125331930372e-05
 82 -1.91546083801144543e-05
 83  1.81446273754107383e-06
 84 -1.54900449659305922e-05
 85 -2.28598440973741567e-05
 86  8.04332878392519389e-05
 87  4.01195963107807017e-05
 88  7.75741824751186737e-05
 89  1.25442993794230081e-05
 90 -2.18526473366758260e-06
 91  1.01745701458401444e-05
 92  9.30800577434398818e-06
 93 -9.95170870201021052e-06
 94 -2.43979147437576498e-03
 95 -3.91555827582076518e-04
 96 -3.00245942622058529e-05
 97 -3.15436471176977040e-04
 98 -1.24852926405534397e-07
 99  2.14778600135970612e-05
100  1.00065233580706018e-04
101  3.69091172822599107e-03
102  3.00528920760419899e-03
103  1.13235093838131610e-04
104 -4.63780112315668940e-05
105  9.68637004081330058e-06
106  2.40811228116216816e-04
107  2.63695157324055464e-04
108 -5.36283884319504588e-05
109 -4.06665688575742184e-05
110  7.63620284498986554e-04
111  3.65974485193072219e-04
112 -2.36416805117563257e-04
113  1.68265708179828977e-04
114 -4.70766369458478593e-05
115 -4.48827604273036059e-05
116 -2.92645188475731078e-06
117  8.06275744459656615e-05
118 -3.86689654409900615e-05
119  2.95230220314331680e-03
120  1.15474733796090202e-04
121 -2.48411804997418148e-04
122 -5.12510662975755333e-04
123 -6.10698666171437990e-06
124  1.93377118231353454e-05
125 -3.86973393290736685e-05
126  4.33104995913153932e-06
127 -7.24359281443186378e-05
128 -1.27944062663017225e-04
129  5.63481691674519225e-01
130  4.66590212840662932e-01
131  5.01024816142402445e-04
132  3.26630550628042898e-04
133 -1.17851734532834645e-03
134  4.01459698394626956e-03
135 -4.27924849879277567e-04
136 -3.08513637799425475e-04
137  1.06794156857063804e-03
138 -2.97699081401194780e-03
139  3.46203234770683639e-04
140  1.39881575415480043e-05
141 -2.10134752124573164e-05
142 -2.91191479123613720e-04
143  3.73936006623219231e-04
144  1.94843382033065005e-04
145 -1.22061537659159770e-04
146 -2.90883760406835297e-05
147 -3.03851625966179793e-03
148  3.09622921205237876e-05
149 -8.92441015891365998e-05
150  4.02117117461278672e-04
151  3.05223073113041366e-04
152  1.84897734752027668e-04
153  7.03940543672790177e-04
154  3.02378552578886088e-04
155  1.10866759522225094e-04
156  6.99360746762878963e-04
 Sym= A
 Ene= -1.14362543636054355e+01
 Spin= Alpha
 Occup=  1.00000000000000000e+00
  1 -6.08677107692713220e-06
  2  1.89781201015791935e-06
  3 -7.41093441194594951e-06
  4  1.73384908963501166e-07
  5 -2.27312130060993706e-06
  6 -4.47279012660250545e-05
  7  1.92368080049603778e-05
  8 -3.70304975826106173e-06
  9  2.32031050859709187e-05
 10  4.41811131181793742e-04
 11 -2.82925274398736866e-04
 12 -3.25452994171324190e-05
 13 -9.27372344906352459e-05
 14 -1.07108535916460550e-05
 15 -6.08205191516842057e-06
 16  2.03290739814407056e-06
 17 -3.08095611840343478e-07
 18  3.45289888442798138e-06
 19 -1.49265913044304885e-03
 20  1.81608694529914523e-04
 21 -9.13397996134932038e-05
 22  1.10278224922579090e-03
 23 -8.24185453319277363e-06
 24  3.28044355383536867e-05
 25  7.24635793169927609e-05
 26  6.70238742550726611e-04
 27  5.80294635675126114e-04
 28  1.96519998550808460e-05
 29  2.20392060680219545e-06
 30  4.45491199249943666e-06
 31 -8.55783183707891498e-05
 32  1.68086365812395529e-04
 33  1.92998339212448221e-05
 34 -8.38161654608611532e-06
 35 -5.38754160859622943e-04
 36  6.13335298929885140e-05
 37  3.68063409835812005e-05
 38 -3.05634940978518352e-04
 39  4.94664057638111317e-05
 40  4.28233733966957989e-05
 41  7.14273401155920866e-06
 42 -3.38930715873288473e-05
 43 -5.44238136952497349e-06
 44  2.91418353529826566e-03
 45  5.38248837859186396e-04
 46  1.64408463809124064e-05
 47  7.84415251821646330e-04
 48  5.11703005364172079e-07
 49 -3.58849168573297810e-05
 50 -9.88271187617439364e-05
 51 -1.37917094595776002e-01
 52 -1.14173090174460090e-01
 53 -5.04571773099996853e-05
 54 -2.60112557279157742e-05
 55 -1.98070135116411040e-04
 56 -1.57014858600376043e-03
 57  2.17181280528545699e-04
 58  1.75181645799707834e-05
 59 -1.33352476254366124e-04
 60  1.14980901732042451e-03
 61 -3.40792898560967316e-06
 62  7.80742483430890283e-06
 63  3.57491551408204127e-04
 64 -6.67672360836106342e-05
 65  1.30634517080482025e-04
 66  1.60811310955428015e-05
 67  9.87804727979086928e-05
 68  4.34177812412813442e-05
 69 -1.77069194768017264e-03
 70  2.00951660589806104e-04
 71  4.46498824945228441e-05
 72 -7.76798086941854959e-04
 73 -1.10435267788824964e-04
 74  4.19834554571079968e-05
 75 -5.45496922177545409e-05
 76 -5.46220750857307480e-01
 77 -4.52314121897449684e-01
 78 -1.47629433845207540e-04
 79 -4.26369135710914196e-05
 80 -8.36542448871745669e-05
 81 -3.23060220546041816e-03
 82 -7.76109644515029819e-06
 83  3.42398704060881289e-05
 84  3.27214731833687063e-04
 85 -3.85597442367331081e-04
 86 -3.21524467484983728e-04
 87 -4.43999867892322983e-06
 88  5.50387260530868242e-05
 89 -3.51178457182964342e-04
 90  2.24812666317037666e-04
 91 -1.36265981365027840e-04
 92 -6.03407629626417550e-04
 93 -1.12849624138641313e-04
 94  2.02953652632808677e-03
 95 -6.85717474742310887e-05
 96 -1.43918812018091914e-04
 97 -6.77882182244560113e-05
 98 -3.57100919949878814e-04
 99  1.47475368394592223e-04
100 -4.33311080631709343e-04
101 -1.11468062493791428e-02
102 -9.16279128886203324e-03
103  4.28814033935157802e-05
104  3.37518671196894223e-05
105  1.05536426887159506e-04
106 -4.21826390352475098e-04
107  1.61773463006464912e-04
108  4.79326716729940397e-05
109  2.63025738798745932e-04
110  5.74999041226273021e-04
111  4.40875338556430418e-05
112 -1.36308233232753501e-04
113 -1.38860397826553718e-04
114 -9.36852387009250149e-05
115 -1.03278472034199999e-04
116 -3.66935650580880505e-05
117  4.20921031212888682e-05
118 -2.91908387161641537e-05
119 -1.69853627140057720e-03
120 -5.95011702024708696e-05
121  3.64040330747246910e-04
122  1.28274810316244035e-04
123  5.12090522184206992e-06
124 -3.89480429388672382e-05
125  9.60932462284302941e-05
126 -5.23440669787893926e-06
127 -1.10224188269094793e-04
128  1.73125647226374295e-04
129  1.07073172731953032e-05
130  1.40600613515865978e-05
131 -1.32554391856489055e-05
132  7.56426666876746897e-06
133 -5.94058527800589587e-06
134  1.02375260057253677e-05
135  5.43268824075658749e-05
136 -3.42419614802204727e-05
137  1.96867957998519269e-05
138 -3.88744528423989031e-04
139  1.13264198622208150e-04
140  3.32667526700469851e-05
141  4.00878476282606554e-05
142  1.94234122243775409e-05
143 -3.96020654462233864e-06
144  8.91701479594332441e-06
145 -1.54627917761223364e-05
146  2.38945715168457492e-05
147 -1.95762334875280108e-04
148 -6.61714568273542034e-04
149 -1.71447190850747343e-04
150  1.83863721189777071e-04
151 -9.19687203532045403e-06
152  7.32357332883609127e-05
153  9.83797633804815468e-06
154 -6.49498162297995878e-06
155 -3.96248845500642804e-06
156  8.35798001152551995e-05
 Sym= A
 Ene= -1.14329847985877127e+01
 Spin= Alpha
 Occup=  1.00000000000000000e+00
  1 -9.71580723730396296e-06
  2  1.07588985171243441e-06
  3 -5.17632436492706376e-06
  4  4.10622113655707258e-06
  5 -9.73006387441509384e-06
  6 -6.79839682571756529e-05
  7  1.33295165567257069e-05
  8 -2.37557653602733936e-05
  9  5.59768427055326281e-05
 10  7.56409364965059355e-04
 11 -4.25614915408153299e-04
 12 -2.96389538182794687e-05
 13 -4.90079203758765728e-05
 14 -2.89354443781930793e-06
 15 -3.56769590413747188e-05
 16 -1.97102165927231110e-06
 17 -6.69183847442812057e-06
 18  8.33121978016226708e-06
 19 -1.82268031789446588e-03
 20  2.29484543182876377e-04
 21 -1.16336785857486729e-04
 22  8.13467592487139763e-04
 23 -7.59994790904723046e-06
 24  3.86768942993835234e-05
 25  7.56829332983821655e-05
 26  2.57844858393558229e-03
 27  2.21866116118207314e-03
 28  1.50418509010913180e-04
 29  2.15517440914829966e-05
 30 -1.03170586943494173e-05
 31 -3.17968114777564964e-04
 32  4.32395591341945106e-04
 33  5.93506107915826888e-05
 34  4.53223222063061143e-05
 35 -8.95310316380312646e-04
 36  2.68494538742751238e-04
 37  7.23396139705399631e-05
 38 -6.08421112787546061e-04
 39  1.56883350837040133e-04
 40  4.20267656787256776e-05
 41  8.16694555742846874e-06
 42 -1.04482171136049566e-04
 43 -2.62104994857142247e-05
 44  3.46063331528365841e-03
 45  2.61325951662901934e-04
 46  4.86768709940379405e-05
 47  7.68558676669651867e-04
 48  3.34853190755004246e-06
 49 -8.50336692507851314e-05
 50 -2.08219437971755346e-04
 51 -5.46001955542496309e-01
 52 -4.52261950180327721e-01
 53 -6.91818937895630811e-04
 54 -7.07217040507741179e-05
 55  7.51551533102907672e-05
 56 -5.02215623796877907e-03
 57  7.07961220838554807e-04
 58  3.39869317660559161e-05
 59 -4.87955480591818552e-04
 60  1.79346397660964225e-03
 61  6.54186071431341244e-05
 62  4.66833473581202270e-05
 63  5.57661994997492912e-04
 64 -2.99033436518986954e-04
 65  2.58881946161848011e-04
 66 -1.89608235435893835e-05
 67 -1.75753185764363225e-05
 68  3.43869093899202050e-05
 69 -3.91866817987606732e-03
 70 -6.21623166040539331e-05
 71 -9.83940827024967540e-05
 72 -1.24302721055038448e-03
 73 -3.90811507473737860e-04
 74  1.86713750602390030e-04
 75 -3.06617868644328527e-04
 76  1.38186008858687093e-01
 77  1.14462290406051617e-01
 78 -1.18945924791777249e-04
 79  2.49132071462463604e-05
 80  2.91743016301844818e-04
 81  6.32490898979263302e-04
 82  1.20635655195272805e-04
 83 -1.79689747070027809e-05
 84 -3.48005229782637768e-04
 85 -2.69383733402483376e-04
 86 -2.92500620038905861e-04
 87  1.28693723290654569e-05
 88  1.77536307364535383e-04
 89  1.94643303865845124e-04