[Molden Format]
[Atoms] (AU)
C    1    6         2.692996544949       0.121705921384      -0.214878868000
H    2    1         4.736250256935       0.348478914590      -0.219160987400
C    3    6         1.372372402584       0.196467266359      -2.381511097964
H    4    1         2.319246322883       0.513610742337      -4.178212053389
C    5    6        -1.372372402584      -0.196467266359      -2.381511097964
H    6    1        -2.319246322883      -0.513610742337      -4.178212053389
C    7    6        -2.692996544949      -0.121705921384      -0.214878868000
H    8    1        -4.736250256935      -0.348478914590      -0.219160987400
C    9    6        -1.382905736008       0.452434638477       2.258843117009
H   10    1        -1.442483131565       2.513277921239       2.573556405189
H   11    1        -2.403940257347      -0.396593231470       3.849140815080
C   12    6         1.382905736008      -0.452434638477       2.258843117009
H   13    1         1.442483131565      -2.513277921239       2.573556405189
H   14    1         2.403940257347       0.396593231470       3.849140815080
[GTO]
  1 0
 s    6  1.00
     4563.2400000000         0.0019666500
      682.0240000000         0.0152306000
      154.9730000000         0.0761269000
       44.4553000000         0.2608010000
       13.0290000000         0.6164620000
        1.8277300000         0.2210060000
 s    3  1.00
       20.9642000000         0.1146600000
        4.8033100000         0.9199990000
        1.4593300000        -0.0030306800
 p    3  1.00
       20.9642000000         0.0402487000
        4.8033100000         0.2375940000
        1.4593300000         0.8158540000
 s    1  1.00
        0.4834560000         1.0000000000
 p    1  1.00
        0.4834560000         1.0000000000
 s    1  1.00
        0.1455850000         1.0000000000
 p    1  1.00
        0.1455850000         1.0000000000
 d    1  1.00
        0.6260000000         1.0000000000
 s    1  1.00
        0.0438000000         1.0000000000
 p    1  1.00
        0.0438000000         1.0000000000

  2 0
 s    3  1.00
       33.8650000000         0.0254938000
        5.0947900000         0.1903730000
        1.1587900000         0.8521610000
 s    1  1.00
        0.3258400000         1.0000000000
 s    1  1.00
        0.1027410000         1.0000000000

  3 0
 s    6  1.00
     4563.2400000000         0.0019666500
      682.0240000000         0.0152306000
      154.9730000000         0.0761269000
       44.4553000000         0.2608010000
       13.0290000000         0.6164620000
        1.8277300000         0.2210060000
 s    3  1.00
       20.9642000000         0.1146600000
        4.8033100000         0.9199990000
        1.4593300000        -0.0030306800
 p    3  1.00
       20.9642000000         0.0402487000
        4.8033100000         0.2375940000
        1.4593300000         0.8158540000
 s    1  1.00
        0.4834560000         1.0000000000
 p    1  1.00
        0.4834560000         1.0000000000
 s    1  1.00
        0.1455850000         1.0000000000
 p    1  1.00
        0.1455850000         1.0000000000
 d    1  1.00
        0.6260000000         1.0000000000
 s    1  1.00
        0.0438000000         1.0000000000
 p    1  1.00
        0.0438000000         1.0000000000

  4 0
 s    3  1.00
       33.8650000000         0.0254938000
        5.0947900000         0.1903730000
        1.1587900000         0.8521610000
 s    1  1.00
        0.3258400000         1.0000000000
 s    1  1.00
        0.1027410000         1.0000000000

  5 0
 s    6  1.00
     4563.2400000000         0.0019666500
      682.0240000000         0.0152306000
      154.9730000000         0.0761269000
       44.4553000000         0.2608010000
       13.0290000000         0.6164620000
        1.8277300000         0.2210060000
 s    3  1.00
       20.9642000000         0.1146600000
        4.8033100000         0.9199990000
        1.4593300000        -0.0030306800
 p    3  1.00
       20.9642000000         0.0402487000
        4.8033100000         0.2375940000
        1.4593300000         0.8158540000
 s    1  1.00
        0.4834560000         1.0000000000
 p    1  1.00
        0.4834560000         1.0000000000
 s    1  1.00
        0.1455850000         1.0000000000
 p    1  1.00
        0.1455850000         1.0000000000
 d    1  1.00
        0.6260000000         1.0000000000
 s    1  1.00
        0.0438000000         1.0000000000
 p    1  1.00
        0.0438000000         1.0000000000

  6 0
 s    3  1.00
       33.8650000000         0.0254938000
        5.0947900000         0.1903730000
        1.1587900000         0.8521610000
 s    1  1.00
        0.3258400000         1.0000000000
 s    1  1.00
        0.1027410000         1.0000000000

  7 0
 s    6  1.00
     4563.2400000000         0.0019666500
      682.0240000000         0.0152306000
      154.9730000000         0.0761269000
       44.4553000000         0.2608010000
       13.0290000000         0.6164620000
        1.8277300000         0.2210060000
 s    3  1.00
       20.9642000000         0.1146600000
        4.8033100000         0.9199990000
        1.4593300000        -0.0030306800
 p    3  1.00
       20.9642000000         0.0402487000
        4.8033100000         0.2375940000
        1.4593300000         0.8158540000
 s    1  1.00
        0.4834560000         1.0000000000
 p    1  1.00
        0.4834560000         1.0000000000
 s    1  1.00
        0.1455850000         1.0000000000
 p    1  1.00
        0.1455850000         1.0000000000
 d    1  1.00
        0.6260000000         1.0000000000
 s    1  1.00
        0.0438000000         1.0000000000
 p    1  1.00
        0.0438000000         1.0000000000

  8 0
 s    3  1.00
       33.8650000000         0.0254938000
        5.0947900000         0.1903730000
        1.1587900000         0.8521610000
 s    1  1.00
        0.3258400000         1.0000000000
 s    1  1.00
        0.1027410000         1.0000000000

  9 0
 s    6  1.00
     4563.2400000000         0.0019666500
      682.0240000000         0.0152306000
      154.9730000000         0.0761269000
       44.4553000000         0.2608010000
       13.0290000000         0.6164620000
        1.8277300000         0.2210060000
 s    3  1.00
       20.9642000000         0.1146600000
        4.8033100000         0.9199990000
        1.4593300000        -0.0030306800
 p    3  1.00
       20.9642000000         0.0402487000
        4.8033100000         0.2375940000
        1.4593300000         0.8158540000
 s    1  1.00
        0.4834560000         1.0000000000
 p    1  1.00
        0.4834560000         1.0000000000
 s    1  1.00
        0.1455850000         1.0000000000
 p    1  1.00
        0.1455850000         1.0000000000
 d    1  1.00
        0.6260000000         1.0000000000
 s    1  1.00
        0.0438000000         1.0000000000
 p    1  1.00
        0.0438000000         1.0000000000

  10 0
 s    3  1.00
       33.8650000000         0.0254938000
        5.0947900000         0.1903730000
        1.1587900000         0.8521610000
 s    1  1.00
        0.3258400000         1.0000000000
 s    1  1.00
        0.1027410000         1.0000000000

  11 0
 s    3  1.00
       33.8650000000         0.0254938000
        5.0947900000         0.1903730000
        1.1587900000         0.8521610000
 s    1  1.00
        0.3258400000         1.0000000000
 s    1  1.00
        0.1027410000         1.0000000000

  12 0
 s    6  1.00
     4563.2400000000         0.0019666500
      682.0240000000         0.0152306000
      154.9730000000         0.0761269000
       44.4553000000         0.2608010000
       13.0290000000         0.6164620000
        1.8277300000         0.2210060000
 s    3  1.00
       20.9642000000         0.1146600000
        4.8033100000         0.9199990000
        1.4593300000        -0.0030306800
 p    3  1.00
       20.9642000000         0.0402487000
        4.8033100000         0.2375940000
        1.4593300000         0.8158540000
 s    1  1.00
        0.4834560000         1.0000000000
 p    1  1.00
        0.4834560000         1.0000000000
 s    1  1.00
        0.1455850000         1.0000000000
 p    1  1.00
        0.1455850000         1.0000000000
 d    1  1.00
        0.6260000000         1.0000000000
 s    1  1.00
        0.0438000000         1.0000000000
 p    1  1.00
        0.0438000000         1.0000000000

  13 0
 s    3  1.00
       33.8650000000         0.0254938000
        5.0947900000         0.1903730000
        1.1587900000         0.8521610000
 s    1  1.00
        0.3258400000         1.0000000000
 s    1  1.00
        0.1027410000         1.0000000000

  14 0
 s    3  1.00
       33.8650000000         0.0254938000
        5.0947900000         0.1903730000
        1.1587900000         0.8521610000
 s    1  1.00
        0.3258400000         1.0000000000
 s    1  1.00
        0.1027410000         1.0000000000

[5D]
[9G]

[MO]
 Sym= A
 Ene= -1.37577561804326010e+01
 Spin= Alpha
 Occup=  1.00000000000000000e+00
  1  3.94078999652347516e-05
  2 -2.43831466209605227e-04
  3  1.09678471087155886e-04
  4  4.16954934802609065e-05
  5 -3.47858423793307890e-04
  6  1.25253136455029130e-03
  7 -1.16158817258267826e-03
  8 -1.43523395309696762e-04
  9  1.60598273691610967e-03
 10  7.40226868112419181e-03
 11 -1.97590498280765742e-03
 12 -5.73883553344278785e-04
 13 -1.57444314098587599e-03
 14  6.93677058003712584e-04
 15 -5.14242364884191045e-04
 16 -3.38688595817645947e-05
 17 -5.11080835722784507e-04
 18  6.01618331555449164e-04
 19  3.81821882443050750e-02
 20 -6.29857349416073926e-03
 21 -7.02584734723979296e-06
 22  1.54111655585170929e-02
 23  2.65484715321992091e-04
 24  1.52609002190876524e-04
 25 -1.66858849017974828e-03
 26  4.61691881565607306e-05
 27 -2.91476907648923671e-04
 28  2.01974752262865445e-04
 29 -8.96345794871291425e-05
 30 -1.18178111577303772e-04
 31  2.14160746943385140e-03
 32 -1.14480475461679692e-03
 33  2.67029900684690087e-04
 34  9.45801945056654698e-04
 35 -1.31131911648061251e-02
 36  5.77625594022717834e-03
 37  9.14837980553649937e-04
 38 -7.29846217219885796e-03
 39 -2.92910518674226845e-04
 40 -1.21727830709065679e-05
 41  1.79264675857495156e-05
 42 -7.14931890092508924e-05
 43  1.39304895544676210e-04
 44 -3.28416178138783571e-02
 45  1.38068074689296789e-02
 46 -1.29960226559785021e-04
 47 -4.26918256066998337e-03
 48  3.42644659155834266e-04
 49 -1.23608218214678735e-03
 50 -2.90953719046249020e-03
 51  7.45438554662743646e-05
 52 -4.02509264441409205e-04
 53  3.87471658108139887e-04
 54 -7.42119863155979865e-05
 55 -4.05742100186790673e-04
 56  1.96783508024998659e-03
 57 -2.58811021264786180e-03
 58  4.54953046984521653e-04
 59  4.01061903179912149e-03
 60  1.17022862905726711e-02
 61  8.61528425353885220e-03
 62  8.13478447172147042e-04
 63  6.04955899730384716e-03
 64  1.28051424684496261e-03
 65 -1.67559073972191699e-03
 66 -1.41839442961132125e-04
 67 -3.61335532361376237e-04
 68 -4.42358653105266004e-04
 69  8.72635530684969657e-02
 70  4.10654651249422412e-03
 71  3.83849200443954659e-03
 72  1.27748875566155388e-02
 73  1.40771019821435628e-04
 74  2.11717403697317570e-03
 75 -5.68104968641841915e-04
 76  6.14353437820763169e-05
 77 -4.13919070094301788e-04
 78 -6.77487452119171583e-04
 79 -3.79310395285583724e-04
 80 -2.23797347062345674e-03
 81  7.94919780845403578e-04
 82  1.44266021989710304e-03
 83  1.36306719394924656e-03
 84  9.17132076885456005e-03
 85 -2.40854561817492978e-02
 86 -1.40348442868413123e-02
 87 -3.08963850559367502e-03
 88 -1.24015194558729207e-02
 89  1.88168042883950139e-03
 90  4.87098957850090261e-03
 91  1.34847736576724337e-03
 92 -7.82236318800075866e-05
 93  5.73342833921305179e-04
 94 -6.35646735517172712e-02
 95 -1.31231608885628258e-02
 96 -2.83570114825524048e-03
 97  9.26947410476034080e-03
 98  7.20925751167557816e-04
 99 -8.49044294240718566e-04
100 -4.37007866562428432e-03
101  6.24522756229721865e-01
102  4.19858810538536131e-01
103  2.58527400521386442e-04
104 -4.89696117072889545e-04
105 -1.10456592334867861e-03
106 -5.57516040797528742e-02
107 -1.58263306738847670e-03
108  2.44156507781476259e-03
109  5.12979111013875996e-03
110  8.25181746307151881e-02
111  4.00438218847638978e-03
112 -3.18317436662255392e-03
113 -9.53293544462124887e-03
114 -5.67449215275902716e-04
115 -1.88691027887056672e-03
116 -6.23254569600629636e-04
117 -1.55697356319470215e-03
118  3.53891063560144564e-04
119  3.44779867300211082e-02
120  4.77057622642335696e-03
121  3.21131309800452370e-03
122 -2.33620608264412544e-03
123  1.34211904523485982e-03
124 -4.31690160173071359e-03
125 -1.29734954121310756e-02
126  1.20849788559590911e-03
127 -3.36900959896091349e-03
128 -1.16874176103167401e-02
129  7.40375324756024927e-05
130 -4.81312362128162705e-04
131  1.71421626750909860e-03
132 -5.49282938909198548e-04
133 -2.13356434100960522e-04
134  1.63719518138357649e-03
135 -5.09387943401911226e-03
136  1.60499433923890389e-03
137  9.76993184015468230e-04
138 -2.13529607190512394e-02
139  9.77564875359716347e-03
140 -4.45414779515130709e-03
141 -2.31243631696995800e-04
142 -2.05938125203028195e-03
143  4.86895426510034477e-04
144  2.43704461799610457e-04
145  2.81801238677892090e-03
146 -2.11643360425749433e-03
147 -5.54945693958055625e-02
148 -4.40670645244174188e-03
149 -7.96875749880241249e-03
150  9.19725090842345161e-03
151  6.73477866357431450e-04
152  1.22852336959336549e-03
153 -1.56701651430159227e-03
154  3.68699261229001865e-04
155  1.88024700601998988e-03
156  1.75857277806832669e-03
 Sym= A
 Ene= -1.14827966444097314e+01
 Spin= Alpha
 Occup=  1.00000000000000000e+00
  1  2.97480308871691558e-03
  2  2.40852716852124399e-03
  3 -5.05822441457729526e-05
  4 -3.43295466367697199e-05
  5  1.33532033785951611e-04
  6  2.59055369778426906e-04
  7 -1.45134754472461716e-04
  8 -1.18378209038056000e-05
  9  1.57545173271949181e-04
 10  7.84170419721794696e-04
 11 -2.00686265601466082e-04
 12 -1.30416779555902367e-04
 13  5.34943265452316342e-04
 14  2.57777671697438632e-05
 15 -7.51280276039581441e-05
 16 -6.11658649155514988e-06
 17  4.06909586302439978e-05
 18  5.65130274978198348e-06
 19  3.99518916453231107e-03
 20 -8.42846840757498737e-04
 21 -8.30897632045175187e-05
 22  1.26188768743662482e-04
 23 -7.37210455910291474e-06
 24 -2.84839468792704954e-05
 25  1.30438577787021332e-05
 26 -2.99875410706363603e-05
 27 -2.26598894376011132e-05
 28  1.60284704643260145e-06
 29 -1.61511746517578066e-06
 30  1.86935204443054997e-06
 31 -9.15980285359065643e-06
 32 -1.19809884929643152e-05
 33  9.84708218607161546e-06
 34 -3.46785459284449361e-05
 35 -8.40783109829876832e-05
 36  2.34900406092406573e-04
 37  1.73662343712078925e-05
 38 -4.76305133554864800e-05
 39 -9.15003638373043718e-06
 40 -3.65380820944978136e-07
 41 -8.30174926989797982e-06
 42  5.46069097463229289e-06
 43  6.37447224213666667e-06
 44 -4.19947272661613889e-03
 45  5.53439099884124488e-04
 46  1.28604045477841237e-04
 47 -5.32997184204223279e-04
 48  5.72213330109200495e-06
 49 -3.93319601487816077e-05
 50  5.62899132337888321e-05
 51 -4.73795029651094974e-05
 52 -3.87534232259218375e-05
 53  4.95899957261702116e-06
 54 -1.61628074491958907e-06
 55 -3.33506033399117302e-06
 56 -1.47292697182319077e-05
 57 -4.23054453223206813e-05
 58  1.16920465095275042e-05
 59  2.42025665348977127e-05
 60  3.18762064837557139e-04
 61  1.70936781716089054e-04
 62  1.50971347925632429e-05
 63  1.37020344288155886e-04
 64  1.86396164010642838e-05
 65 -1.39333355366165597e-05
 66 -5.67963106223612995e-06
 67  5.45430977761330185e-07
 68 -3.85655122388725541e-06
 69  2.73334582053115548e-03
 70  6.67819064195687337e-04
 71  6.83540727670494828e-05
 72  2.43189693441553276e-04
 73 -4.50981084252518388e-06
 74  3.58430423462987043e-05
 75  5.63382715574242660e-06
 76 -8.41012212735293930e-05
 77 -7.23673692751561148e-05
 78  2.54221500963390814e-06
 79 -6.94974358421441565e-06
 80 -1.30364730299335234e-05
 81  3.75199421492256013e-06
 82 -2.62292069261240822e-05
 83  3.02597793164059595e-05
 84  7.39413688302076701e-05
 85 -3.34918481131810466e-04
 86 -1.52839645078596678e-04
 87 -5.22432208913178045e-05
 88 -6.54420448672387775e-05
 89  2.33340932048564310e-05
 90  4.20228462916283474e-05
 91  1.32522292787423368e-05
 92 -7.72285791864313117e-06
 93  3.75988198737874758e-06
 94 -1.30416635041744424e-03
 95 -2.94569694614724631e-04
 96 -1.69195800318806041e-05
 97 -2.36997076188897362e-04
 98  6.63246149581459180e-06
 99 -4.20784577634334714e-06
100 -1.65594634160468476e-05
101 -1.12682446872218065e-04
102 -1.65016195240998939e-04
103  9.49530903350307397e-05
104 -3.85655864944037840e-05
105 -4.13585530519573369e-06
106  3.30311044934767240e-04
107  7.08771585755632550e-04
108 -2.00428524370385573e-04
109  2.45477113035120158e-05
110  1.18055890096130812e-03
111  2.93757351203738414e-04
112 -1.16570947899250022e-04
113 -1.05808925354379752e-04
114 -2.03869943762375211e-04
115 -3.34077919660379907e-05
116  4.58430916477013007e-06
117  2.62460407178477842e-04
118 -1.95460559719982008e-04
119  2.78043155938712027e-03
120  2.94620577502570390e-04
121 -2.71586933300854878e-04
122 -1.40128669440043842e-04
123  2.99598126113040136e-05
124 -1.04262663564597623e-04
125 -1.21032358733683065e-05
126  3.24092877972013545e-05
127 -7.85175099373188324e-05
128 -1.15425251205184733e-04
129  5.63479077104251380e-01
130  4.66573162965995047e-01
131 -1.28456952891933970e-03
132  4.61639648309848693e-04
133 -1.22251844345107455e-04
134  4.09782368950810296e-03
135  1.13037372881776834e-03
136 -4.06739511258624828e-04
137  1.06407464898067186e-04
138 -2.92117846168742741e-03
139 -3.06824209094735641e-04
140 -6.43399050605376564e-07
141  2.30731199194352606e-04
142  2.44594541816942708e-04
143  2.28124058455187054e-05
144  3.65775512427196013e-05
145 -3.85723461824195185e-04
146  2.79392724124811380e-04
147 -4.47844257318042588e-03
148  4.73173819199957345e-04
149 -2.40860560337460670e-04
150  4.19246189204750626e-04
151  3.00869083464658899e-04
152  1.47427045034542660e-04
153  7.68534409872443573e-04
154  3.04172401852023514e-04
155  1.36941109086326251e-04
156  7.92216903469723506e-04
 Sym= A
 Ene= -1.14635799841044204e+01
 Spin= Alpha
 Occup=  1.00000000000000000e+00
  1 -9.73923835654187577e-05
  2 -8.01023187648886573e-05
  3  2.74867161346438400e-06
  4  2.30691330741519181e-06
  5 -8.52364037703181228e-06
  6  1.44115738914851742e-05
  7  7.19007035319453246e-06
  8 -6.64591028154271741e-06
  9  6.03891282097702682e-05
 10 -2.71750501242424484e-04
 11  2.43237089039061188e-04
 12  4.77784901032261191e-05
 13 -9.11248572600403325e-06
 14 -1.27284909755676156e-06
 15 -3.08694432403149537e-05
 16 -4.44163764309231688e-07
 17 -5.51272191398222443e-06
 18  8.14667345001808702e-06
 19  2.26477548149673410e-03
 20 -3.64872959301193846e-04
 21  5.67774782942516527e-05
 22 -8.47943073969015791e-04
 23  3.91077857781793356e-06
 24 -3.55815080941509511e-05
 25 -9.40176213327545386e-05
 26  4.64576217236271295e-05
 27  3.92147285995536902e-05
 28 -9.30446763222999308e-06
 29 -2.25921089715413706e-06
 30 -1.22933924014199519e-05
 31 -6.93383317402296884e-06
 32  5.92890048208465428e-05
 33  1.01763569317901854e-05
 34  5.41225340593739894e-05
 35  4.88515864595966891e-04
 36 -1.74782083299596775e-04
 37 -5.66015346470908639e-05
 38  1.22863627819408622e-04
 39  4.08843318596765969e-05
 40 -2.07221475620825659e-06
 41 -3.67481771778010099e-06
 42 -1.75794857032350325e-05
 43 -7.21961841683758618e-06
 44 -4.45595550086335789e-03
 45 -3.77009405327060810e-05
 46  4.36352783043836802e-05
 47 -7.59918413679581744e-04
 48 -4.34137987652145541e-06
 49  3.88077888189405356e-06
 50  1.33932674207162421e-04
 51  1.75707076484242254e-02
 52  1.45348227828607686e-02
 53 -1.52971099205536292e-04
 54  7.53202923633924582e-06
 55  2.32939620143588947e-04
 56  1.93959922125310494e-04
 57  2.82951182154154372e-04
 58  6.40046015828538315e-08
 59 -3.58339524241311927e-04
 60 -4.27300313733596480e-04
 61 -3.77434669335656350e-04
 62 -3.21553134938290606e-05
 63  9.39095468729538751e-06
 64 -1.21629549921459834e-04
 65  1.34536405965865214e-04
 66 -1.66756321104853692e-05
 67 -1.06165306482443940e-04
 68 -1.41507017739483536e-05
 69  6.83357329618067104e-04
 70  6.69194988427993117e-04
 71  5.85304794362494801e-05
 72  2.63162183517185442e-04
 73  3.19132918153485315e-06
 74 -4.06027228775611703e-05
 75  4.36481880095251638e-05
 76  5.63120654078137162e-01
 77  4.66351359076400185e-01
 78  6.11561223987232457e-04
 79  2.94062839959559525e-04
 80  1.56072931944140395e-03
 81  4.14432468890179977e-03
 82 -2.25520048184919375e-04
 83 -2.60388289415780364e-04
 84 -1.87011579786938525e-03
 85 -7.69301380822795837e-04
 86  2.79061399322496988e-04
 87  8.39510968411026517e-05
 88  6.25462404751103425e-04
 89  2.71831005366553834e-05
 90 -7.33522147414952439e-04
 91 -8.59833877436459542e-05
 92  2.22907521342763338e-04
 93 -4.52311337457178981e-05
 94  2.26346957693309202e-05
 95  4.22228447948876204e-04
 96  1.62404698380652231e-05
 97 -9.52337997243018889e-04
 98  3.41155852735647552e-04
 99 -1.13716955885126918e-04
100  5.97729749725427976e-04
101 -1.20911691836151866e-04
102 -1.93069350821197319e-04
103 -4.13138948256264608e-05
104 -3.37391078234231602e-05
105 -1.02594891509464532e-04
106  5.11036001927755675e-04
107 -4.18764931159174795e-04
108 -1.34522841398556796e-04
109 -6.91352870674792576e-04
110 -1.74300280736482416e-05
111  1.42756917141517259e-04
112  1.06700380007044378e-04
113  1.15487721160570687e-04
114  2.71663584886753563e-04
115  2.85043476547792399e-04
116  1.29637438474909504e-04
117 -3.89793976225555959e-06
118  6.87910030408661014e-05
119  1.86361925021514673e-03
120 -2.97093056282625597e-04
121 -3.30934615669641638e-04
122 -1.15434873247598763e-04
123  1.41058685850177205e-05
124 -3.88284474026439193e-05
125 -1.47690221495453533e-04
126  2.72244458520312916e-05
127  5.84446203431774662e-05
128 -2.51100939053008508e-04
129  9.01149677804558290e-05
130  6.69262160814038982e-05
131  1.72434120460463486e-05
132 -1.10643789304951847e-05
133 -3.13969139993700735e-06
134  1.33619384620148230e-05
135 -7.84743853254001896e-05
136  4.60819276919600295e-05
137  2.20235432620493826e-05
138  1.02505627634525714e-04
139  2.20340773060370358e-05
140 -9.93060566001526934e-05
141 -6.33573001191993593e-05
142 -4.35859489236512483e-05
143 -3.92628406261484088e-06
144 -8.09608370379358617e-06
145  2.57849072156883107e-05
146 -3.92103634715672283e-05
147 -1.70744599704581286e-04
148  4.83424678321366726e-04
149  1.49852432800229860e-04
150 -1.53629883569092033e-05
151  1.38836698090908119e-05
152 -6.66166225733860062e-05
153 -1.60750800158793503e-05
154  8.86184171570504336e-06
155  2.54266410671021367e-05
156 -4.34838170444656164e-05
 Sym= A
 Ene= -1.14377881947933506e+01
 Spin= Alpha
 Occup=  1.00000000000000000e+00
  1  2.84046917686482669e-04
  2  2.25115862438949346e-04
  3  6.14074961054891938e-06
  4 -4.34184854438427216e-06
  5  7.66508389429865187e-06
  6  6.57595512683271076e-05
  7 -4.30432140742926158e-05
  8  1.46290646395795421e-05
  9 -7.10908231404650491e-05
 10 -2.79386575801355826e-04
 11  1.53599958309381506e-04
 12  3.79861904521950889e-06
 13  6.10615445235116388e-05
 14 -2.15998313282804064e-06
 15  4.11975029866144549e-05
 16  2.18358277392728532e-06
 17  8.33666904310808626e-06
 18 -7.52754136739460317e-06
 19  7.80925408446116035e-04
 20 -8.08385473487391960e-05
 21  1.00560797269473327e-04
 22 -8.35469978816226889e-04
 23  5.78377988617631212e-06
 24 -5.85972809681324422e-06
 25 -2.15805205806043097e-05
 26  8.96405306275904409e-03
 27  7.35105237027442251e-03
 28 -1.53741433006962606e-04
 29 -1.99978703089936263e-05
 30  6.96624217527605110e-06
 31  3.97217124712678608e-04
 32 -3.55922778984543860e-04
 33 -4.72570209814855089e-05
 34 -5.24389851182497597e-05
 35  2.53913626510984672e-04
 36 -3.02583151890214015e-05
 37 -1.46987206906336093e-05
 38  2.15764272305214391e-04
 39 -1.40778457734645448e-04
 40 -3.01238206127912670e-05
 41 -7.31497331561343156e-06
 42  8.93760654668596143e-05
 43  2.30918390887469332e-05
 44 -2.25867507385408032e-03
 45 -3.80973894369013310e-04
 46 -4.32046397680468908e-05
 47 -5.20304110085904772e-04
 48  1.23050721601037539e-05
 49  2.78318731562360468e-05
 50  7.40878200234124248e-05
 51  5.63017293796466922e-01
 52  4.66284225723914425e-01
 53  2.13866082828156987e-04
 54  4.78077066653849710e-06
 55  3.04756579308036038e-05
 56  4.20002377594173686e-03
 57 -3.78463179476370721e-04
 58  3.05604951491519526e-06
 59  3.07042010455046868e-04
 60 -8.32303482839513329e-04
 61 -9.31668158990251897e-05
 62 -2.77409613503846764e-05
 63 -1.80580509508543899e-04
 64  3.73016094671879651e-04
 65 -1.94325669045928299e-04
 66  8.88729826520812723e-05
 67  3.11751547426581039e-04
 68  5.83853358264269402e-05
 69  1.46633090511992504e-03
 70  1.92882834598173599e-04
 71  5.15796479911713565e-05
 72  7.01857290171155725e-04
 73  3.95511272013291261e-04
 74 -1.72556636941194834e-04
 75  3.26367623872867417e-04
 76 -1.78078961803698997e-02
 77 -1.48083412882865084e-02
 78  1.27251805551274630e-04
 79 -1.40772400809426505e-05
 80 -2.64593731740973078e-04
 81  1.48883970454243296e-04
 82 -2.95007518811619484e-06
 83  1.08235367730243150e-05
 84  1.06259513546361049e-04
 85 -6.78701882962269881e-06
 86  2.00341220857226833e-04
 87  7.60422361568685624e-06
 88 -1.37790361381193556e-05
 89 -6.46055427738818791e-05
 90 -3.10046728721636506e-06
 91 -2.78057587121010925e-05
 92 -1.01277778164267181e-04
 93 -2.93134703246013258e-05
 94 -1.38793498529695076e-03
 95 -1.35921041707915687e-04
 96  5.24968798444661576e-05
 97 -1.19317593271214988e-04
 98 -1.26055408897285485e-05
 99  3.19515326431054231e-05
100  9.07458522324254172e-05
101  1.05995190812794057e-05
102  8.07411703864123580e-06
103 -5.20571032643367574e-07
104  4.34138330425476639e-06
105  2.01105804431335624e-05
106  7.65574287908929383e-07
107  2.18811854778523586e-05
108 -1.49586334895029640e-06
109  3.37138922208906308e-06
110 -2.17850080959410030e-04
111 -6.94515591812649275e-05
112  8.14471395877078421e-05
113  8.61001473374059669e-05
114  1.31877790757223787e-06
115 -1.83306786908755357e-05
116 -2.70370214439369942e-06
117 -3.52343546996254858e-06
118  1.21828512639601256e-06
119  1.36249556393484481e-03
120  6.61685861965648751e-05
121 -2.71341499625545176e-04
122 -6.80470593088479744e-05
123 -3.68151091147056948e-07
124 -5.29751014109216813e-06
125 -7.62535050219493118e-05
126 -6.42044141407771703e-06
127  4.27438327870419368e-05
128 -1.19682216396173953e-04
129  4.59056266478680177e-05
130  3.85633271235367986e-05
131 -1.46077235536220425e-07
132 -2.01849895091095983e-06
133  7.93214766900136188e-06
134 -2.24971576369151873e-05
135  1.09805379744961615e-05
136  6.36719262107152433e-06
137 -2.37598042886119180e-05
138  2.29864202595805021e-04
139 -6.11295144805644913e-05
140 -7.64574967280288908e-06
141 -1.57363597459560061e-05
142  7.17499147173923276e-06
143 -8.82112096801420639e-06
144 -4.84969914584250989e-06
145  1.27974321757724932e-06
146  1.20882613198888111e-06
147  2.10677624391606712e-04
148  5.29878256977972333e-04
149  1.27244080940946562e-04
150 -1.66141941185479536e-04
151  7.58604047217063833e-06
152 -4.90606881618114787e-05
153  8.35942282706527052e-06
154  1.48133466427743026e-06
155 -5.07000688239998498e-06
156 -5.77234296464218026e-05
 Sym= A
 Ene= -1.14218767023472410e+01
 Spin= Alpha
 Occup=  1.00000000000000000e+00
  1 -5.61297150865164740e-01
  2 -4.64835942587974726e-01
  3  1.73199684209531852e-04
  4  8.98274777638345765e-05
  5 -6.20900509081143094e-04
  6 -4.13639238666363516e-03
  7  8.80845459558671500e-05
  8 -8.32826844421617128e-05
  9  8.89606918972106020e-04
 10  5.15907439335500182e-04
 11  2.05490603667854934e-05
 12 -1.58693544639093828e-05
 13 -2.01103082675497744e-04
 14 -2.39576910895956697e-04
 15 -3.97906721915146702e-04
 16  4.61537587261109407e-05
 17 -3.61259494949568206e-04
 18 -2.94413674924812546e-05
 19  4.10947428800394817e-04
 20  2.92727332581066261e-04
 21  1.22992194451472330e-04
 22  4.32174393447262847e-04
 23 -3.81549072427789097e-04
 24  1.44544894958331297e-04
 25 -3.88639501380747660e-04
 26 -4.81875766141738465e-02
 27 -3.98675644711296850e-02
 28 -9.61887818904453689e-05
 29  9.51317389327952160e-06
 30 -2.23638827947196333e-04
 31 -5.70657436534045262e-04
 32  5.69521795526224035e-05
 33 -3.27721162552816726e-06
 34  1.32510559288895460e-04
 35  4.08532832537896991e-04
 36 -6.90678763252870021e-05
 37  1.88953096959622187e-05
 38 -2.14385095684652979e-05
 39  4.82002272696285309e-05
 40  1.19224753764886383e-05
 41 -1.43876181837342163e-05
 42  9.67221366206740701e-05
 43  2.61184285402652986e-05
 44 -6.70927336714899976e-04
 45  2.37549037279697543e-04
 46 -2.77318317330433452e-05
 47 -4.08440951282057290e-04
 48 -3.32616305101069329e-05
 49  1.09092602595288499e-05
 50 -9.23194451874519205e-05
 51  1.05436957742402904e-03
 52  8.80586895641732696e-04
 53 -6.30367491264525354e-06
 54 -1.14323667139894982e-06
 55  9.76500309633656759e-06
 56 -1.85962481585734696e-05
 57 -2.75996542609651694e-05
 58 -1.20876588924230352e-06
 59 -3.03658113394547555e-05
 60 -2.88269948705883398e-04
 61 -2.67622898385871744e-05
 62 -3.08272726137300265e-05
 63 -1.13805875821136154e-04
 64 -5.53717758219535661e-06
 65 -2.25109162443332015e-05
 66 -3.64544720174802822e-06
 67 -3.09793170532254776e-06
 68  1.88576310633868550e-06
 69  3.49584536475076304e-03
 70 -3.49910168904923890e-04
 71  1.82342131512692301e-05
 72  7.54163376383642429e-04
 73  2.71467406644485681e-06
 74 -6.46120216217396710e-06
 75 -8.51570557524773127e-05
 76 -1.29573539481602851e-04
 77 -1.05606870432864842e-04
 78  4.42128150912720664e-06
 79  6.34850073681041168e-07
 80  8.98504315935852439e-07
 81 -2.42230210799984561e-05
 82 -5.26058088900630669e-06
 83 -1.58860605959171284e-06
 84 -1.00579238832209022e-05
 85  2.49894945273343503e-04
 86  2.01875382364717458e-04
 87  4.22137594745658891e-05
 88 -5.25949341579773230e-05
 89 -5.10283964506096118e-06