[Molden Format]
[Atoms] (AU)
C    1    6         2.692996544949       0.121705921384      -0.214878868000
H    2    1         4.736250256935       0.348478914590      -0.219160987400
C    3    6         1.372372402584       0.196467266359      -2.381511097964
H    4    1         2.319246322883       0.513610742337      -4.178212053389
C    5    6        -1.372372402584      -0.196467266359      -2.381511097964
H    6    1        -2.319246322883      -0.513610742337      -4.178212053389
C    7    6        -2.692996544949      -0.121705921384      -0.214878868000
H    8    1        -4.736250256935      -0.348478914590      -0.219160987400
C    9    6        -1.382905736008       0.452434638477       2.258843117009
H   10    1        -1.442483131565       2.513277921239       2.573556405189
H   11    1        -2.403940257347      -0.396593231470       3.849140815080
C   12    6         1.382905736008      -0.452434638477       2.258843117009
H   13    1         1.442483131565      -2.513277921239       2.573556405189
H   14    1         2.403940257347       0.396593231470       3.849140815080
[GTO]
  1 0
 s    6  1.00
     4563.2400000000         0.0019666500
      682.0240000000         0.0152306000
      154.9730000000         0.0761269000
       44.4553000000         0.2608010000
       13.0290000000         0.6164620000
        1.8277300000         0.2210060000
 s    3  1.00
       20.9642000000         0.1146600000
        4.8033100000         0.9199990000
        1.4593300000        -0.0030306800
 p    3  1.00
       20.9642000000         0.0402487000
        4.8033100000         0.2375940000
        1.4593300000         0.8158540000
 s    1  1.00
        0.4834560000         1.0000000000
 p    1  1.00
        0.4834560000         1.0000000000
 s    1  1.00
        0.1455850000         1.0000000000
 p    1  1.00
        0.1455850000         1.0000000000
 d    1  1.00
        0.6260000000         1.0000000000
 s    1  1.00
        0.0438000000         1.0000000000
 p    1  1.00
        0.0438000000         1.0000000000

  2 0
 s    3  1.00
       33.8650000000         0.0254938000
        5.0947900000         0.1903730000
        1.1587900000         0.8521610000
 s    1  1.00
        0.3258400000         1.0000000000
 s    1  1.00
        0.1027410000         1.0000000000

  3 0
 s    6  1.00
     4563.2400000000         0.0019666500
      682.0240000000         0.0152306000
      154.9730000000         0.0761269000
       44.4553000000         0.2608010000
       13.0290000000         0.6164620000
        1.8277300000         0.2210060000
 s    3  1.00
       20.9642000000         0.1146600000
        4.8033100000         0.9199990000
        1.4593300000        -0.0030306800
 p    3  1.00
       20.9642000000         0.0402487000
        4.8033100000         0.2375940000
        1.4593300000         0.8158540000
 s    1  1.00
        0.4834560000         1.0000000000
 p    1  1.00
        0.4834560000         1.0000000000
 s    1  1.00
        0.1455850000         1.0000000000
 p    1  1.00
        0.1455850000         1.0000000000
 d    1  1.00
        0.6260000000         1.0000000000
 s    1  1.00
        0.0438000000         1.0000000000
 p    1  1.00
        0.0438000000         1.0000000000

  4 0
 s    3  1.00
       33.8650000000         0.0254938000
        5.0947900000         0.1903730000
        1.1587900000         0.8521610000
 s    1  1.00
        0.3258400000         1.0000000000
 s    1  1.00
        0.1027410000         1.0000000000

  5 0
 s    6  1.00
     4563.2400000000         0.0019666500
      682.0240000000         0.0152306000
      154.9730000000         0.0761269000
       44.4553000000         0.2608010000
       13.0290000000         0.6164620000
        1.8277300000         0.2210060000
 s    3  1.00
       20.9642000000         0.1146600000
        4.8033100000         0.9199990000
        1.4593300000        -0.0030306800
 p    3  1.00
       20.9642000000         0.0402487000
        4.8033100000         0.2375940000
        1.4593300000         0.8158540000
 s    1  1.00
        0.4834560000         1.0000000000
 p    1  1.00
        0.4834560000         1.0000000000
 s    1  1.00
        0.1455850000         1.0000000000
 p    1  1.00
        0.1455850000         1.0000000000
 d    1  1.00
        0.6260000000         1.0000000000
 s    1  1.00
        0.0438000000         1.0000000000
 p    1  1.00
        0.0438000000         1.0000000000

  6 0
 s    3  1.00
       33.8650000000         0.0254938000
        5.0947900000         0.1903730000
        1.1587900000         0.8521610000
 s    1  1.00
        0.3258400000         1.0000000000
 s    1  1.00
        0.1027410000         1.0000000000

  7 0
 s    6  1.00
     4563.2400000000         0.0019666500
      682.0240000000         0.0152306000
      154.9730000000         0.0761269000
       44.4553000000         0.2608010000
       13.0290000000         0.6164620000
        1.8277300000         0.2210060000
 s    3  1.00
       20.9642000000         0.1146600000
        4.8033100000         0.9199990000
        1.4593300000        -0.0030306800
 p    3  1.00
       20.9642000000         0.0402487000
        4.8033100000         0.2375940000
        1.4593300000         0.8158540000
 s    1  1.00
        0.4834560000         1.0000000000
 p    1  1.00
        0.4834560000         1.0000000000
 s    1  1.00
        0.1455850000         1.0000000000
 p    1  1.00
        0.1455850000         1.0000000000
 d    1  1.00
        0.6260000000         1.0000000000
 s    1  1.00
        0.0438000000         1.0000000000
 p    1  1.00
        0.0438000000         1.0000000000

  8 0
 s    3  1.00
       33.8650000000         0.0254938000
        5.0947900000         0.1903730000
        1.1587900000         0.8521610000
 s    1  1.00
        0.3258400000         1.0000000000
 s    1  1.00
        0.1027410000         1.0000000000

  9 0
 s    6  1.00
     4563.2400000000         0.0019666500
      682.0240000000         0.0152306000
      154.9730000000         0.0761269000
       44.4553000000         0.2608010000
       13.0290000000         0.6164620000
        1.8277300000         0.2210060000
 s    3  1.00
       20.9642000000         0.1146600000
        4.8033100000         0.9199990000
        1.4593300000        -0.0030306800
 p    3  1.00
       20.9642000000         0.0402487000
        4.8033100000         0.2375940000
        1.4593300000         0.8158540000
 s    1  1.00
        0.4834560000         1.0000000000
 p    1  1.00
        0.4834560000         1.0000000000
 s    1  1.00
        0.1455850000         1.0000000000
 p    1  1.00
        0.1455850000         1.0000000000
 d    1  1.00
        0.6260000000         1.0000000000
 s    1  1.00
        0.0438000000         1.0000000000
 p    1  1.00
        0.0438000000         1.0000000000

  10 0
 s    3  1.00
       33.8650000000         0.0254938000
        5.0947900000         0.1903730000
        1.1587900000         0.8521610000
 s    1  1.00
        0.3258400000         1.0000000000
 s    1  1.00
        0.1027410000         1.0000000000

  11 0
 s    3  1.00
       33.8650000000         0.0254938000
        5.0947900000         0.1903730000
        1.1587900000         0.8521610000
 s    1  1.00
        0.3258400000         1.0000000000
 s    1  1.00
        0.1027410000         1.0000000000

  12 0
 s    6  1.00
     4563.2400000000         0.0019666500
      682.0240000000         0.0152306000
      154.9730000000         0.0761269000
       44.4553000000         0.2608010000
       13.0290000000         0.6164620000
        1.8277300000         0.2210060000
 s    3  1.00
       20.9642000000         0.1146600000
        4.8033100000         0.9199990000
        1.4593300000        -0.0030306800
 p    3  1.00
       20.9642000000         0.0402487000
        4.8033100000         0.2375940000
        1.4593300000         0.8158540000
 s    1  1.00
        0.4834560000         1.0000000000
 p    1  1.00
        0.4834560000         1.0000000000
 s    1  1.00
        0.1455850000         1.0000000000
 p    1  1.00
        0.1455850000         1.0000000000
 d    1  1.00
        0.6260000000         1.0000000000
 s    1  1.00
        0.0438000000         1.0000000000
 p    1  1.00
        0.0438000000         1.0000000000

  13 0
 s    3  1.00
       33.8650000000         0.0254938000
        5.0947900000         0.1903730000
        1.1587900000         0.8521610000
 s    1  1.00
        0.3258400000         1.0000000000
 s    1  1.00
        0.1027410000         1.0000000000

  14 0
 s    3  1.00
       33.8650000000         0.0254938000
        5.0947900000         0.1903730000
        1.1587900000         0.8521610000
 s    1  1.00
        0.3258400000         1.0000000000
 s    1  1.00
        0.1027410000         1.0000000000

[5D]
[9G]

[MO]
 Sym= A
 Ene= -1.37577561808829127e+01
 Spin= Alpha
 Occup=  1.00000000000000000e+00
  1 -6.14353450364297360e-05
  2  4.13919073805753181e-04
  3 -6.77487454513635225e-04
  4 -3.79310398976550364e-04
  5  2.23797348500334465e-03
  6 -7.94919791445572541e-04
  7  1.44266023103805274e-03
  8  1.36306720502411588e-03
  9 -9.17132084793711826e-03
 10  2.40854563387138294e-02
 11 -1.40348443623255058e-02
 12 -3.08963852890889283e-03
 13  1.24015195436895584e-02
 14 -1.88168044746478348e-03
 15  4.87098961694658415e-03
 16  1.34847737559586479e-03
 17  7.82236343629041112e-05
 18 -5.73342839775751664e-04
 19  6.35646742066847265e-02
 20 -1.31231610209192103e-02
 21 -2.83570116465758915e-03
 22 -9.26947409768124654e-03
 23 -7.20925756775679422e-04
 24  8.49044296577816746e-04
 25  4.37007868491577547e-03
 26 -7.45438559575596675e-05
 27  4.02509267322151670e-04
 28  3.87471661268055088e-04
 29 -7.42119864655783700e-05
 30  4.05742103270713384e-04
 31 -1.96783509516427124e-03
 32 -2.58811023300725262e-03
 33  4.54953048982520642e-04
 34 -4.01061906205320371e-03
 35 -1.17022863740197831e-02
 36  8.61528431656979898e-03
 37  8.13478454913234435e-04
 38 -6.04955903538801319e-03
 39 -1.28051425850221937e-03
 40 -1.67559075160147162e-03
 41 -1.41839444445980312e-04
 42  3.61335535854488503e-04
 43  4.42358656093278727e-04
 44 -8.72635537463188476e-02
 45  4.10654658303505771e-03
 46  3.83849202541930142e-03
 47 -1.27748876541990668e-02
 48 -1.40771020408970722e-04
 49 -2.11717405073425305e-03
 50  5.68104973175734816e-04
 51 -4.61691894637609825e-05
 52  2.91476908173245956e-04
 53  2.01974754651362262e-04
 54 -8.96345799777967619e-05
 55  1.18178111319913729e-04
 56 -2.14160748439477062e-03
 57 -1.14480477021230553e-03
 58  2.67029902704812871e-04
 59 -9.45801942339865448e-04
 60  1.31131912889965157e-02
 61  5.77625599627362533e-03
 62  9.14837986432805498e-04
 63  7.29846223950186401e-03
 64  2.92910524890056291e-04
 65 -1.21727852849369253e-05
 66  1.79264673899532115e-05
 67  7.14931884560126104e-05
 68 -1.39304897382679159e-04
 69  3.28416182138731721e-02
 70  1.38068075689542491e-02
 71 -1.29960215360362419e-04
 72  4.26918260696748392e-03
 73 -3.42644661649777957e-04
 74  1.23608219451467986e-03
 75  2.90953721051174802e-03
 76 -3.94078995775818292e-05
 77  2.43831467348660629e-04
 78  1.09678471322843576e-04
 79  4.16954969522547849e-05
 80  3.47858422917524991e-04
 81 -1.25253136360688752e-03
 82 -1.16158818194339792e-03
 83 -1.43523385182970481e-04
 84 -1.60598273019713642e-03
 85 -7.40226879786353223e-03
 86 -1.97590504197584470e-03
 87 -5.73883558953292472e-04
 88  1.57444313030420950e-03
 89 -6.93677058001707894e-04
 90 -5.14242361339209463e-04
 91 -3.38688571243385880e-05
 92  5.11080835281627088e-04
 93 -6.01618330938386773e-04
 94 -3.81821884720831214e-02
 95 -6.29857354273938210e-03
 96 -7.02585190280583935e-06
 97 -1.54111656049311894e-02
 98 -2.65484715138189411e-04
 99 -1.52609007607564591e-04
100  1.66858848367492166e-03
101 -7.40375307247457360e-05
102  4.81312359737828788e-04
103  1.71421626650769543e-03
104 -5.49282941544891969e-04
105  2.13356431444076342e-04
106 -1.63719518303962093e-03
107 -5.09387939022710144e-03
108  1.60499432333144581e-03
109 -9.76993186988386582e-04
110  2.13529609766963148e-02
111  9.77564882331840440e-03
112 -4.45414782447575881e-03
113  2.31243601848871015e-04
114  2.05938124225713785e-03
115  4.86895423696124619e-04
116  2.43704460753227777e-04
117 -2.81801237285367974e-03
118  2.11643359246826155e-03
119  5.54945697758022494e-02
120 -4.40670642927295901e-03
121 -7.96875753675502230e-03
122 -9.19725093855375091e-03
123 -6.73477865836327565e-04
124 -1.22852339095489566e-03
125  1.56701651837304378e-03
126 -3.68699258548529484e-04
127 -1.88024702113297995e-03
128 -1.75857278808744005e-03
129 -6.24522756338318441e-01
130 -4.19858810539918637e-01
131  2.58527309302290201e-04
132 -4.89696105766291635e-04
133  1.10456595769506849e-03
134  5.57516045047329947e-02
135 -1.58263293046380696e-03
136  2.44156505604814717e-03
137 -5.12979113648327767e-03
138 -8.25181752088163106e-02
139  4.00438218560975751e-03
140 -3.18317438715084696e-03
141  9.53293550058658887e-03
142  5.67449264130333525e-04
143 -1.88691028640602400e-03
144 -6.23254561521316267e-04
145  1.55697351942958931e-03
146 -3.53891013153607872e-04
147 -3.44779873401822104e-02
148  4.77057627078453228e-03
149  3.21131307189915279e-03
150  2.33620614493563160e-03
151 -1.34211906098579727e-03
152  4.31690161753130359e-03
153  1.29734955236150348e-02
154 -1.20849790987253192e-03
155  3.36900960169004594e-03
156  1.16874177340221732e-02
 Sym= A
 Ene= -1.14827966296823423e+01
 Spin= Alpha
 Occup=  1.00000000000000000e+00
  1 -8.41012820776006030e-05
  2 -7.23674205861207066e-05
  3 -2.54221372004908153e-06
  4  6.94974406784179363e-06
  5 -1.30364744735928600e-05
  6  3.75199880014871709e-06
  7  2.62291989046908771e-05
  8 -3.02597821515705374e-05
  9  7.39413754500194110e-05
 10 -3.34918394290660364e-04
 11  1.52839613567997209e-04
 12  5.22432201625711246e-05
 13 -6.54420376712243904e-05
 14  2.33340939350367786e-05
 15 -4.20228492038748615e-05
 16 -1.32522284515227217e-05
 17 -7.72285908352011308e-06
 18  3.75988659589120441e-06
 19 -1.30416598524790315e-03
 20  2.94569634905523126e-04
 21  1.69195764504014221e-05
 22 -2.36997095633677241e-04
 23  6.63246181022991839e-06
 24 -4.20784477041936618e-06
 25 -1.65594688510317614e-05
 26 -4.73795244588298955e-05
 27 -3.87534419282094673e-05
 28 -4.95900013718433581e-06
 29  1.61627977040336681e-06
 30 -3.33506149400263631e-06
 31 -1.47292589182570305e-05
 32  4.23054502638705023e-05
 33 -1.16920424251986784e-05
 34  2.42025734555903050e-05
 35  3.18761935037672757e-04
 36 -1.70936722941017791e-04
 37 -1.50971313438119147e-05
 38  1.37020278032626259e-04
 39  1.86396187761639938e-05
 40  1.39333360933730659e-05
 41  5.67963127780388219e-06
 42  5.45426699112085829e-07
 43 -3.85655079203084625e-06
 44  2.73334537967498750e-03
 45 -6.67819036292882921e-04
 46 -6.83540683019126180e-05
 47  2.43189613275539285e-04
 48 -4.50980917641850018e-06
 49  3.58430300627455420e-05
 50  5.63381061444744084e-06
 51 -2.99875818116809993e-05
 52 -2.26599218648505466e-05
 53 -1.60284810795120958e-06
 54  1.61511783158404213e-06
 55  1.86935090943056226e-06
 56 -9.15981578160711205e-06
 57  1.19809977079651309e-05
 58 -9.84708254204295612e-06
 59 -3.46785509593108509e-05
 60 -8.40781724477463399e-05
 61 -2.34900325789571499e-04
 62 -1.73662153384203869e-05
 63 -4.76304296751190758e-05
 64 -9.15004012933363680e-06
 65  3.65386964898124032e-07
 66  8.30174709137646157e-06
 67  5.46069252284078508e-06
 68  6.37447632912529959e-06
 69 -4.19947246983725514e-03
 70 -5.53439037419088523e-04
 71 -1.28604037033473690e-04
 72 -5.32997135948875644e-04
 73  5.72213064072736921e-06
 74 -3.93319400584616225e-05
 75  5.62899335370681942e-05
 76  2.97480093765216782e-03
 77  2.40852539471769983e-03
 78  5.05822479847136333e-05
 79  3.43295391092947590e-05
 80  1.33532035431931838e-04
 81  2.59055315823910107e-04
 82  1.45134715948205259e-04
 83  1.18377824405601008e-05
 84  1.57545081622955231e-04
 85  7.84170137589648383e-04
 86  2.00686130169066765e-04
 87  1.30416747648937639e-04
 88  5.34943189881204473e-04
 89  2.57777486515490325e-05
 90  7.51279946892668401e-05
 91  6.11656031686936545e-06
 92  4.06909649150911048e-05
 93  5.65130055229175700e-06
 94  3.99518874112619795e-03
 95  8.42846791360507899e-04
 96  8.30897457216901719e-05
 97  1.26188678437119667e-04
 98 -7.37210647587995202e-06
 99 -2.84839599913539833e-05
100  1.30438337930225968e-05
101  5.63479077152443275e-01
102  4.66573163079715025e-01
103  1.28456961457635828e-03
104 -4.61639637732295482e-04
105 -1.22251745685055321e-04
106  4.09782320751478184e-03
107 -1.13037376755219677e-03
108  4.06739408584738346e-04
109  1.06407216824184461e-04
110 -2.92117773234278240e-03
111  3.06824286079057499e-04
112  6.43395077974983402e-07
113  2.30731177442732786e-04
114  2.44594607456529247e-04
115 -2.28122993476894767e-05
116 -3.65774915756167252e-05
117 -3.85723377843224895e-04
118  2.79392665787683175e-04
119 -4.47844178469288760e-03
120 -4.73173816437518087e-04
121  2.40860515515490452e-04
122  4.19246088740721657e-04
123  3.00869096940415055e-04
124  1.47427044570183939e-04
125  7.68534239789943731e-04
126  3.04172426933052836e-04
127  1.36941122367183812e-04
128  7.92216739099786465e-04
129 -1.12682445064075834e-04
130 -1.65016194159235219e-04
131 -9.49530863350811168e-05
132  3.85655826151667578e-05
133 -4.13585838815879147e-06
134  3.30311062056583900e-04
135 -7.08771572327248386e-04
136  2.00428530042246991e-04
137  2.45477215638637915e-05
138  1.18055860400160368e-03
139 -2.93757254776164372e-04
140  1.16570888507873331e-04
141 -1.05808919334403486e-04
142 -2.03869948155703659e-04
143  3.34077857327405228e-05
144 -4.58430870571049972e-06
145  2.62460399538910804e-04
146 -1.95460565880464017e-04
147  2.78043113911821899e-03
148 -2.94620513624874452e-04
149  2.71586909857145340e-04
150 -1.40128617830533964e-04
151  2.99598125032212984e-05
152 -1.04262651427048614e-04
153 -1.21032399110577550e-05
154  3.24092872422609022e-05
155 -7.85174845830706041e-05
156 -1.15425244411166219e-04
 Sym= A
 Ene= -1.14635799819851929e+01
 Spin= Alpha
 Occup=  1.00000000000000000e+00
  1 -5.63120653853552922e-01
  2 -4.66351358940973015e-01
  3  6.11561210125297744e-04
  4  2.94062791288788607e-04
  5 -1.56072930244765184e-03
  6 -4.14432502712879826e-03
  7 -2.25520040295886930e-04
  8 -2.60388170993561556e-04
  9  1.87011577131155314e-03
 10  7.69301681268826413e-04
 11  2.79061277263714528e-04
 12  8.39510270697900500e-05
 13 -6.25462377288947395e-04
 14 -2.71830692280786127e-05
 15 -7.33522135191161341e-04
 16 -8.59834600283065925e-05
 17 -2.22907466214769507e-04
 18  4.52310971992410751e-05
 19 -2.26352363172520754e-05
 20  4.22228538190727956e-04
 21  1.62405349632166055e-05
 22  9.52337958853420965e-04
 23 -3.41155859292156197e-04
 24  1.13716971466310018e-04
 25 -5.97729727447048748e-04
 26 -1.75707120210013869e-02
 27 -1.45348264044262866e-02
 28 -1.52971095687302655e-04
 29  7.53203059562920166e-06
 30 -2.32939629029196989e-04
 31 -1.93959971521864074e-04
 32  2.82951189729304406e-04
 33  6.39769762819616609e-08
 34  3.58339522509361840e-04
 35  4.27300192206016272e-04
 36 -3.77434648161063401e-04
 37 -3.21552981465736388e-05
 38 -9.39101795083702489e-06
 39  1.21629545314494485e-04
 40  1.34536417819473885e-04
 41 -1.66756522570970160e-05
 42  1.06165306821388904e-04
 43  1.41506912500747720e-05
 44 -6.83357143254346750e-04
 45  6.69195008572556109e-04
 46  5.85304548011303469e-05
 47 -2.63162148959451272e-04
 48 -3.19132748271613438e-06
 49  4.06027229222417991e-05
 50 -4.36482120232395749e-05
 51 -4.64575078600542758e-05
 52 -3.92146351022453789e-05
 53 -9.30446912851176995e-06
 54 -2.25921377473500490e-06
 55  1.22933937448842017e-05
 56  6.93382642950898766e-06
 57  5.92890090745643906e-05
 58  1.01763530221383524e-05
 59 -5.41225322773046446e-05
 60 -4.88515773641210252e-04
 61 -1.74782053826408454e-04
 62 -5.66015331431811962e-05
 63 -1.22863585554630248e-04
 64 -4.08843385444929665e-05
 65 -2.07221498193513693e-06
 66 -3.67481588934907953e-06
 67  1.75794807797617721e-05
 68  7.21961569806187350e-06
 69  4.45595573289691519e-03
 70 -3.77009574903045872e-05
 71  4.36352814738620725e-05
 72  7.59918469736356309e-04
 73  4.34138082398571347e-06
 74 -3.88077515401576630e-06
 75 -1.33932672141894406e-04
 76  9.73922488636599909e-05
 77  8.01022065055552636e-05
 78  2.74867188406599542e-06
 79  2.30691336128565463e-06
 80  8.52363887134413433e-06
 81 -1.44115706515428022e-05
 82  7.19007090105251879e-06
 83 -6.64590894705307056e-06
 84 -6.03891231489802921e-05
 85  2.71750447640491588e-04
 86  2.43237067286292277e-04
 87  4.77784943982369992e-05
 88  9.11248448883533209e-06
 89  1.27285042122124772e-06
 90 -3.08694421839753405e-05
 91 -4.44162218103229785e-07
 92  5.51272054174293137e-06
 93 -8.14667220470654474e-06
 94 -2.26477567212738599e-03
 95 -3.64872996498629787e-04
 96  5.67774875286451421e-05
 97  8.47943122281631960e-04
 98 -3.91077778421887817e-06
 99  3.55815079214776741e-05
100  9.40176142101636236e-05
101 -9.01150285382497802e-05
102 -6.69262680630465485e-05
103  1.72434102563327619e-05
104 -1.10643794894684523e-05
105  3.13969095073150504e-06
106 -1.33619259711356254e-05
107 -7.84743747599373783e-05
108  4.60819265430728714e-05
109 -2.20235445505818618e-05
110 -1.02505627928113147e-04
111  2.20340540487020572e-05
112 -9.93060782636041623e-05
113  6.33573097629486594e-05
114  4.35859455408830278e-05
115 -3.92628291530455998e-06
116 -8.09608441872955995e-06
117 -2.57849068426724767e-05
118  3.92103628433708063e-05
119  1.70744893150838190e-04
120  4.83424773359094413e-04
121  1.49852406281281744e-04
122  1.53629982028452645e-05
123 -1.38836731930764678e-05
124  6.66166396779977057e-05
125  1.60750718563806456e-05
126 -8.86184083540539888e-06
127 -2.54266453092228295e-05
128  4.34837871574704618e-05
129  1.20911693779541840e-04
130  1.93069352012459279e-04
131 -4.13138986989109461e-05
132 -3.37391075787074610e-05
133  1.02594895843074812e-04
134 -5.11036000424454177e-04
135 -4.18764930297442831e-04
136 -1.34522844825900410e-04
137  6.91352868812941299e-04
138  1.74299107710260733e-05
139  1.42756901600947668e-04
140  1.06700390952716576e-04
141 -1.15487664355070835e-04
142 -2.71663578819463718e-04
143  2.85043472292891985e-04
144  1.29637441505377741e-04
145  3.89793925264164531e-06
146 -6.87910003112806906e-05
147 -1.86361922930519046e-03
148 -2.97092939214516918e-04
149 -3.30934649603538346e-04
150  1.15434788074519020e-04
151 -1.41058678089282448e-05
152  3.88284600078461949e-05
153  1.47690223792751167e-04
154 -2.72244445411951745e-05
155 -5.84446180575456044e-05
156  2.51100943424171607e-04
 Sym= A
 Ene= -1.14377881991713739e+01
 Spin= Alpha
 Occup=  1.00000000000000000e+00
  1  1.78079005434291227e-02
  2  1.48083449022948684e-02
  3  1.27251803094341535e-04
  4 -1.40772378026556130e-05
  5  2.64593745969583230e-04
  6 -1.48883928772015965e-04
  7 -2.95008086106419097e-06
  8  1.08235556764209954e-05
  9 -1.06259536052638517e-04
 10  6.78690590107923940e-06
 11  2.00341219056074371e-04
 12  7.60421602553036288e-06
 13  1.37790861364669689e-05
 14  6.46055377023959640e-05
 15 -3.10044674704259671e-06
 16 -2.78057640113997036e-05
 17  1.01277773585524035e-04
 18  2.93134565913945882e-05
 19  1.38793535503297445e-03
 20 -1.35921110754308558e-04
 21  5.24968745164006677e-05
 22  1.19317511141013612e-04
 23  1.26055438590624846e-05
 24 -3.19515195473815295e-05
 25 -9.07458471718235773e-05
 26 -5.63017293460449042e-01
 27 -4.66284225456661205e-01
 28  2.13866156708511919e-04
 29  4.78081197140607220e-06
 30 -3.04756704882264923e-05
 31 -4.20002385243688561e-03
 32 -3.78463325083115319e-04
 33  3.05598305762604025e-06
 34 -3.07042003906767100e-04
 35  8.32303802130974655e-04
 36 -9.31668220045789015e-05
 37 -2.77409551236338008e-05
 38  1.80580565859845589e-04
 39 -3.73016131146812696e-04
 40 -1.94325624806161962e-04
 41  8.88728950564978163e-05
 42 -3.11751380236485016e-04
 43 -5.83852949209161297e-05
 44 -1.46633150047140756e-03
 45  1.92882854378117531e-04
 46  5.15796597243341987e-05
 47 -7.01857396583716996e-04
 48 -3.95511255617777191e-04
 49  1.72556635929334805e-04
 50 -3.26367642956839992e-04
 51 -8.96406442196019844e-03
 52 -7.35106177281649904e-03
 53 -1.53741431769455845e-04
 54 -1.99978698373608091e-05
 55 -6.96624464701810212e-06
 56 -3.97217293593184922e-04
 57 -3.55922880655406887e-04
 58 -4.72570351595038806e-05
 59  5.24389972108474281e-05
 60 -2.53913841122538515e-04
 61 -3.02584202787085438e-05
 62 -1.46987441143080457e-05
 63 -2.15764373459609635e-04
 64  1.40778508228339824e-04
 65 -3.01238186994546005e-05
 66 -7.31496376402659144e-06
 67 -8.93760656593278887e-05
 68 -2.30918381677022833e-05
 69  2.25867528467666714e-03
 70 -3.80973825833401066e-04
 71 -4.32046320818546117e-05
 72  5.20304117362503800e-04
 73 -1.23050854855892206e-05
 74 -2.78318876908614760e-05
 75 -7.40878610911901975e-05
 76 -2.84046428051149794e-04
 77 -2.25115452733523212e-04
 78  6.14074610803354705e-06
 79 -4.34184855148765563e-06
 80 -7.66507878985583163e-06
 81 -6.57595744955993182e-05
 82 -4.30432209986328877e-05
 83  1.46290650289315686e-05
 84  7.10908353367832504e-05
 85  2.79386709559114276e-04
 86  1.53600070746935077e-04
 87  3.79863494592660699e-06
 88 -6.10615241764049760e-05
 89  2.15998057456360017e-06
 90  4.11975112902927565e-05
 91  2.18358446557764938e-06
 92 -8.33666797068583984e-06
 93  7.52754221700663615e-06
 94 -7.80925497984649741e-04
 95 -8.08385556513110693e-05
 96  1.00560790790056538e-04
 97  8.35469944270420244e-04
 98 -5.78378233161192028e-06
 99  5.85974758170674450e-06
100  2.15805506290591196e-05
101 -4.59056506128105427e-05
102 -3.85633476527172864e-05
103 -1.46079306452053324e-07
104 -2.01849869718126088e-06
105 -7.93214882758202432e-06
106  2.24971650467399383e-05
107  1.09805469293772622e-05
108  6.36719202460434834e-06
109  2.37598097283782854e-05
110 -2.29864300980453241e-04
111 -6.11295226056658860e-05
112 -7.64574303663669874e-06
113  1.57363972887517249e-05
114 -7.17499532713277708e-06
115 -8.82112292485727173e-06
116 -4.84970028978212906e-06
117 -1.27974109064462360e-06
118 -1.20882687336822358e-06
119 -2.10677511825912479e-04
120  5.29878234605122450e-04
121  1.27244070332083490e-04
122  1.66141909730211973e-04
123 -7.58604076704736190e-06
124  4.90606976273883944e-05
125 -8.35943414206620868e-06
126 -1.48133522146547391e-06
127  5.07001140250432873e-06
128  5.77234184366940087e-05
129 -1.05995199361264707e-05
130 -8.07411990401080021e-06
131 -5.20571566124727638e-07
132  4.34138409833962058e-06
133 -2.01105794255655643e-05
134 -7.65562269844784346e-07
135  2.18811927114475072e-05
136 -1.49586203906253219e-06
137 -3.37140550498471824e-06
138  2.17850087036480138e-04
139 -6.94515652412215547e-05
140  8.14471505351130424e-05
141 -8.61001317646195661e-05
142 -1.31877217051381022e-06
143 -1.83306848590879440e-05
144 -2.70370378220398121e-06
145  3.52343486070412435e-06
146 -1.21828231275942120e-06
147 -1.36249555029572785e-03
148  6.61686033476105548e-05
149 -2.71341486351251620e-04
150  6.80470683386695833e-05
151  3.68150010453276507e-07
152  5.29751711146182398e-06
153  7.62535013970427167e-05
154  6.42044189514155404e-06
155 -4.27438348512893508e-05
156  1.19682195526351265e-04
 Sym= A
 Ene= -1.14218766472837086e+01
 Spin= Alpha
 Occup=  1.00000000000000000e+00
  1  1.29573626403587191e-04
  2  1.05606919482857385e-04
  3  4.42129773499988932e-06
  4  6.34846673780460127e-07
  5 -8.98484841521851408e-07
  6  2.42231447983553010e-05
  7 -5.26069239459939315e-06
  8 -1.58859082200124543e-06
  9  1.00577789009720649e-05
 10 -2.49895606111763893e-04
 11  2.01875619755669867e-04
 12  4.22136802004204542e-05
 13  5.25950710941920166e-05
 14  5.10285957511536196e-06
 15 -1.10505162317351929e-05
 16  5.13106712426529162e-07
 17 -1.24764836788059317e-07
 18  6.24951688732212367e-07
 19  1.69858544640171254e-03
 20 -2.49364781437199365e-04
 21  7.72704084723519684e-05
 22 -1.02890049320765453e-03
 23  4.91258595445797193e-06
 24 -2.95586604798228933e-05
 25 -6.22002678900434078e-05
 26 -1.05437727284082307e-03
 27 -8.80593355526249110e-04
 28 -6.30373041473495428e-06
 29 -1.14324298539962494e-06
 30 -9.76498607321874486e-06
 31  1.85965426166012818e-05
 32 -2.76003657701565946e-05
 33 -1.20886279716000666e-06
 34  3.03656910075849006e-05
 35  2.88271197834276405e-04
 36 -2.67624564486028583e-05
 37 -3.08272741151412451e-05
 38  1.13806521030302359e-04
 39  5.53691966619256305e-06
 40 -2.25110013929603101e-05
 41 -3.64546202732349425e-06
 42  3.09809535551014996e-06
 43 -1.88571636529030505e-06
 44 -3.49584555683188532e-03
 45 -3.49910194993838827e-04
 46  1.82341367528968096e-05
 47 -7.54163689831519567e-04
 48 -2.71466179367461031e-06
 49  6.46128490631920052e-06
 50  8.51570366135806413e-05
 51  4.81880246766843157e-02
 52  3.98679355493233023e-02
 53 -9.61882666250297612e-05
 54  9.51316906869410354e-06
 55  2.23638679483315685e-04
 56  5.70661610803213540e-04
 57  5.69512612014445041e-05
 58 -3.27723994638574346e-06
 59 -1.32509750732561187e-04
 60 -4.08536609442785767e-04
 61 -6.90680744210284456e-05
 62  1.88950421192560584e-05
 63  2.14364934212792950e-05
 64 -4.81997703865326131e-05
 65  1.19219825861725962e-05
 66 -1.43876158730695054e-05
 67 -9.67221910384583272e-05
 68 -2.61184994807938830e-05
 69  6.70935053058429503e-04
 70  2.37548008939605671e-04
 71 -2.77316707844418427e-05
 72  4.08442872368728108e-04
 73  3.32620174894087938e-05
 74 -1.09094903611639546e-05
 75  9.23190969192367504e-05
 76  5.61297113119087032e-01
 77  4.64835910927004325e-01
 78  1.73199932699135854e-04
 79  8.98274399715883696e-05
 80  6.20900063914312287e-04
 81  4.13638786732883901e-03
 82  8.80840677657254641e-05
 83 -8.32825596769710616e-05
 84 -8.89606067998435042e-04
 85 -5.15901826647715374e-04
 86  2.05513848929449018e-05
 87 -1.58690540658248152e-05
 88  2.01102845570026826e-04
 89  2.39577565529475287e-04