[Molden Format]
[Atoms] (AU)
C    1    6         2.692996544949       0.121705921384      -0.214878868000
H    2    1         4.736250256935       0.348478914590      -0.219160987400
C    3    6         1.372372402584       0.196467266359      -2.381511097964
H    4    1         2.319246322883       0.513610742337      -4.178212053389
C    5    6        -1.372372402584      -0.196467266359      -2.381511097964
H    6    1        -2.319246322883      -0.513610742337      -4.178212053389
C    7    6        -2.692996544949      -0.121705921384      -0.214878868000
H    8    1        -4.736250256935      -0.348478914590      -0.219160987400
C    9    6        -1.382905736008       0.452434638477       2.258843117009
H   10    1        -1.442483131565       2.513277921239       2.573556405189
H   11    1        -2.403940257347      -0.396593231470       3.849140815080
C   12    6         1.382905736008      -0.452434638477       2.258843117009
H   13    1         1.442483131565      -2.513277921239       2.573556405189
H   14    1         2.403940257347       0.396593231470       3.849140815080
[GTO]
  1 0
 s    6  1.00
     4563.2400000000         0.0019666500
      682.0240000000         0.0152306000
      154.9730000000         0.0761269000
       44.4553000000         0.2608010000
       13.0290000000         0.6164620000
        1.8277300000         0.2210060000
 s    3  1.00
       20.9642000000         0.1146600000
        4.8033100000         0.9199990000
        1.4593300000        -0.0030306800
 p    3  1.00
       20.9642000000         0.0402487000
        4.8033100000         0.2375940000
        1.4593300000         0.8158540000
 s    1  1.00
        0.4834560000         1.0000000000
 p    1  1.00
        0.4834560000         1.0000000000
 s    1  1.00
        0.1455850000         1.0000000000
 p    1  1.00
        0.1455850000         1.0000000000
 d    1  1.00
        0.6260000000         1.0000000000
 s    1  1.00
        0.0438000000         1.0000000000
 p    1  1.00
        0.0438000000         1.0000000000

  2 0
 s    3  1.00
       33.8650000000         0.0254938000
        5.0947900000         0.1903730000
        1.1587900000         0.8521610000
 s    1  1.00
        0.3258400000         1.0000000000
 s    1  1.00
        0.1027410000         1.0000000000

  3 0
 s    6  1.00
     4563.2400000000         0.0019666500
      682.0240000000         0.0152306000
      154.9730000000         0.0761269000
       44.4553000000         0.2608010000
       13.0290000000         0.6164620000
        1.8277300000         0.2210060000
 s    3  1.00
       20.9642000000         0.1146600000
        4.8033100000         0.9199990000
        1.4593300000        -0.0030306800
 p    3  1.00
       20.9642000000         0.0402487000
        4.8033100000         0.2375940000
        1.4593300000         0.8158540000
 s    1  1.00
        0.4834560000         1.0000000000
 p    1  1.00
        0.4834560000         1.0000000000
 s    1  1.00
        0.1455850000         1.0000000000
 p    1  1.00
        0.1455850000         1.0000000000
 d    1  1.00
        0.6260000000         1.0000000000
 s    1  1.00
        0.0438000000         1.0000000000
 p    1  1.00
        0.0438000000         1.0000000000

  4 0
 s    3  1.00
       33.8650000000         0.0254938000
        5.0947900000         0.1903730000
        1.1587900000         0.8521610000
 s    1  1.00
        0.3258400000         1.0000000000
 s    1  1.00
        0.1027410000         1.0000000000

  5 0
 s    6  1.00
     4563.2400000000         0.0019666500
      682.0240000000         0.0152306000
      154.9730000000         0.0761269000
       44.4553000000         0.2608010000
       13.0290000000         0.6164620000
        1.8277300000         0.2210060000
 s    3  1.00
       20.9642000000         0.1146600000
        4.8033100000         0.9199990000
        1.4593300000        -0.0030306800
 p    3  1.00
       20.9642000000         0.0402487000
        4.8033100000         0.2375940000
        1.4593300000         0.8158540000
 s    1  1.00
        0.4834560000         1.0000000000
 p    1  1.00
        0.4834560000         1.0000000000
 s    1  1.00
        0.1455850000         1.0000000000
 p    1  1.00
        0.1455850000         1.0000000000
 d    1  1.00
        0.6260000000         1.0000000000
 s    1  1.00
        0.0438000000         1.0000000000
 p    1  1.00
        0.0438000000         1.0000000000

  6 0
 s    3  1.00
       33.8650000000         0.0254938000
        5.0947900000         0.1903730000
        1.1587900000         0.8521610000
 s    1  1.00
        0.3258400000         1.0000000000
 s    1  1.00
        0.1027410000         1.0000000000

  7 0
 s    6  1.00
     4563.2400000000         0.0019666500
      682.0240000000         0.0152306000
      154.9730000000         0.0761269000
       44.4553000000         0.2608010000
       13.0290000000         0.6164620000
        1.8277300000         0.2210060000
 s    3  1.00
       20.9642000000         0.1146600000
        4.8033100000         0.9199990000
        1.4593300000        -0.0030306800
 p    3  1.00
       20.9642000000         0.0402487000
        4.8033100000         0.2375940000
        1.4593300000         0.8158540000
 s    1  1.00
        0.4834560000         1.0000000000
 p    1  1.00
        0.4834560000         1.0000000000
 s    1  1.00
        0.1455850000         1.0000000000
 p    1  1.00
        0.1455850000         1.0000000000
 d    1  1.00
        0.6260000000         1.0000000000
 s    1  1.00
        0.0438000000         1.0000000000
 p    1  1.00
        0.0438000000         1.0000000000

  8 0
 s    3  1.00
       33.8650000000         0.0254938000
        5.0947900000         0.1903730000
        1.1587900000         0.8521610000
 s    1  1.00
        0.3258400000         1.0000000000
 s    1  1.00
        0.1027410000         1.0000000000

  9 0
 s    6  1.00
     4563.2400000000         0.0019666500
      682.0240000000         0.0152306000
      154.9730000000         0.0761269000
       44.4553000000         0.2608010000
       13.0290000000         0.6164620000
        1.8277300000         0.2210060000
 s    3  1.00
       20.9642000000         0.1146600000
        4.8033100000         0.9199990000
        1.4593300000        -0.0030306800
 p    3  1.00
       20.9642000000         0.0402487000
        4.8033100000         0.2375940000
        1.4593300000         0.8158540000
 s    1  1.00
        0.4834560000         1.0000000000
 p    1  1.00
        0.4834560000         1.0000000000
 s    1  1.00
        0.1455850000         1.0000000000
 p    1  1.00
        0.1455850000         1.0000000000
 d    1  1.00
        0.6260000000         1.0000000000
 s    1  1.00
        0.0438000000         1.0000000000
 p    1  1.00
        0.0438000000         1.0000000000

  10 0
 s    3  1.00
       33.8650000000         0.0254938000
        5.0947900000         0.1903730000
        1.1587900000         0.8521610000
 s    1  1.00
        0.3258400000         1.0000000000
 s    1  1.00
        0.1027410000         1.0000000000

  11 0
 s    3  1.00
       33.8650000000         0.0254938000
        5.0947900000         0.1903730000
        1.1587900000         0.8521610000
 s    1  1.00
        0.3258400000         1.0000000000
 s    1  1.00
        0.1027410000         1.0000000000

  12 0
 s    6  1.00
     4563.2400000000         0.0019666500
      682.0240000000         0.0152306000
      154.9730000000         0.0761269000
       44.4553000000         0.2608010000
       13.0290000000         0.6164620000
        1.8277300000         0.2210060000
 s    3  1.00
       20.9642000000         0.1146600000
        4.8033100000         0.9199990000
        1.4593300000        -0.0030306800
 p    3  1.00
       20.9642000000         0.0402487000
        4.8033100000         0.2375940000
        1.4593300000         0.8158540000
 s    1  1.00
        0.4834560000         1.0000000000
 p    1  1.00
        0.4834560000         1.0000000000
 s    1  1.00
        0.1455850000         1.0000000000
 p    1  1.00
        0.1455850000         1.0000000000
 d    1  1.00
        0.6260000000         1.0000000000
 s    1  1.00
        0.0438000000         1.0000000000
 p    1  1.00
        0.0438000000         1.0000000000

  13 0
 s    3  1.00
       33.8650000000         0.0254938000
        5.0947900000         0.1903730000
        1.1587900000         0.8521610000
 s    1  1.00
        0.3258400000         1.0000000000
 s    1  1.00
        0.1027410000         1.0000000000

  14 0
 s    3  1.00
       33.8650000000         0.0254938000
        5.0947900000         0.1903730000
        1.1587900000         0.8521610000
 s    1  1.00
        0.3258400000         1.0000000000
 s    1  1.00
        0.1027410000         1.0000000000

[5D]
[9G]

[MO]
 Sym= A
 Ene= -1.37472939038021327e+01
 Spin= Alpha
 Occup=  1.00000000000000000e+00
  1  6.22476468642956508e-05
  2 -3.36016914668351330e-04
  3  1.88810897411166459e-04
  4  3.41926719514468302e-05
  5  3.93802892175683925e-04
  6  1.62628832342549216e-03
  7 -2.14566951498037931e-03
  8 -1.11682534541591525e-04
  9 -3.19779993860474631e-03
 10  1.12253859848677091e-02
 11 -5.14181512313804587e-03
 12 -6.11715888629280817e-04
 13  1.70797478223836535e-03
 14  5.94709722186159521e-04
 15  1.69069401810254417e-03
 16  1.42456664541449300e-04
 17 -7.71031946062892236e-05
 18 -1.60968656667578327e-04
 19 -1.87608955836538610e-02
 20  4.22422182890277737e-03
 21 -1.30207964328900847e-03
 22  9.15939971198140648e-03
 23  2.31951391947256486e-04
 24  7.54739477346017028e-04
 25 -1.04246581773931963e-03
 26  8.97125796735001433e-05
 27 -5.06267198427225846e-04
 28  2.18748784702987821e-03
 29  2.47183143728229671e-04
 30  3.39430429079777616e-04
 31  6.24242430813142868e-04
 32 -8.78071019560014952e-03
 33 -8.90261661827508968e-04
 34 -2.28848207830298443e-03
 35 -1.57450941643339330e-02
 36  9.91478495729018923e-03
 37  1.75505542092436713e-03
 38 -9.07501185281810521e-03
 39 -3.51136027456449683e-03
 40 -8.36627366865380249e-04
 41  3.09953787383805365e-04
 42  3.81055642203304056e-03
 43  1.35881030074113405e-03
 44  6.58579951821494786e-02
 45 -5.05429316871773907e-03
 46  2.04313500133309733e-04
 47  7.50522608791921904e-03
 48  7.10768167123153717e-04
 49 -1.25560360917318032e-03
 50 -5.85658348601894845e-03
 51  6.23865930610064234e-01
 52  4.20934885296820605e-01
 53  8.70471195767993106e-06
 54  2.48371253049834665e-04
 55  2.25586123803467754e-03
 56 -5.71584448134892786e-02
 57  1.65708228869041797e-03
 58 -1.33475296135510710e-03
 59 -1.36220542435836547e-02
 60  5.22741990327317899e-02
 61  7.48999032072704841e-03
 62  2.07286225618545910e-03
 63  1.35356625086368136e-02
 64 -2.54098890772820043e-03
 65  5.93160812695790567e-03
 66 -2.41349457537250948e-04
 67 -4.01556121312030608e-03
 68 -4.82326913761818750e-04
 69 -9.31890884410158798e-02
 70 -8.17118971468432272e-03
 71 -3.01403801695010812e-03
 72 -2.03198774958020731e-02
 73 -2.79593151857404057e-04
 74  2.97001360661341626e-03
 75 -3.32282390031436812e-03
 76  3.75895630845804311e-04
 77 -1.71155098760317681e-03
 78 -1.19151245274446761e-03
 79  1.51615336322223968e-04
 80  2.52864315383923488e-03
 81  6.14916104514635648e-03
 82  8.17421616835950320e-03
 83 -8.36254762552803596e-04
 84 -1.60672033057196809e-02
 85 -7.45167345095183817e-03
 86 -1.00120258110095815e-02
 87 -2.70480650202397374e-04
 88  4.36589987757783540e-03
 89  5.23747020418727314e-03
 90 -7.99954419211556210e-03
 91  1.57119238159230724e-04
 92  1.78103525194350559e-03
 93 -5.03559351389328111e-04
 94  5.45965679006460841e-02
 95  6.48902500690781182e-03
 96 -8.47377128754961406e-04
 97 -6.75364435675475903e-03
 98  1.07219361789467654e-03
 99 -6.43844408973105677e-04
100 -6.06406819112430880e-03
101  5.21982050693332159e-05
102 -3.30616905041503160e-04
103  2.70830494012127112e-04
104  3.83302623894402677e-05
105  4.64548331779626354e-04
106  1.10981947789834477e-03
107 -1.25400913094487988e-03
108 -3.92134209978646053e-04
109 -2.67556776847892872e-03
110  6.18073191240626086e-03
111  2.40827501356104950e-03
112 -2.37496269501782020e-03
113 -4.84803471476761237e-04
114  1.01026950215336343e-03
115  1.30501754962166383e-03
116  5.55401714268932158e-04
117 -2.37040885660628353e-04
118  5.77093513142983575e-05
119 -2.76146135194954810e-02
120 -5.06260724783457079e-03
121  4.14117401711598318e-03
122  1.31595163440174218e-03
123 -1.52465633165062059e-04
124  7.18948622382833925e-04
125  1.32736895732613871e-03
126  4.18419402896982656e-04
127 -6.57159156279444614e-04
128 -3.52270629260853494e-05
129  4.08409925920319189e-05
130 -2.70596614466313561e-04
131  2.88471617631343920e-05
132 -7.69452145053003928e-05
133  5.77921993501801469e-05
134  1.94282657638534650e-03
135 -3.45191612669074771e-04
136  4.14349335128260212e-04
137 -6.41659246286074695e-04
138 -1.04032369614384373e-02
139  1.73671219137222412e-03
140 -4.98941154157744220e-04
141  3.01187903020790895e-03
142 -7.20091642902538268e-05
143 -3.54365545068819493e-04
144 -5.11127132198144467e-05
145  3.22179754285336400e-05
146 -1.14481475727438173e-04
147  1.90145126384590572e-02
148 -1.00240118728057142e-02
149  2.03675876846105450e-06
150 -6.76365250476508193e-04
151 -2.53098419554938421e-04
152  1.91787043416925536e-03
153 -1.56193015051117427e-03
154  6.54382131753158388e-05
155  6.83366651827308630e-04
156 -1.07994990053221713e-03
 Sym= A
 Ene= -1.15220068294942521e+01
 Spin= Alpha
 Occup=  1.00000000000000000e+00
  1 -2.72282616928544667e-05
  2 -2.95916591983040683e-05
  3  6.75643737907574378e-06
  4 -7.98950846868252276e-07
  5  7.18710737886746979e-06
  6  3.74078442433189401e-05
  7 -3.66193499467163899e-05
  8  2.98829623687810989e-06
  9 -6.28318421176706220e-05
 10 -8.83299832484050595e-06
 11  3.43477580006971777e-05
 12 -6.60136564081783138e-06
 13  9.67101641646472089e-05
 14  1.40368718940533183e-05
 15  2.06006209202938656e-05
 16 -3.70064516517230389e-06
 17  1.11406640201717480e-06
 18 -5.97165379838727135e-06
 19  5.90753889782270067e-04
 20 -1.19234290640534067e-05
 21  8.68610301202988813e-05
 22 -8.82931504691532808e-04
 23  6.61346973271134354e-06
 24 -6.00024910498033475e-06
 25 -2.03187535894642692e-05
 26 -4.04844335971188900e-05
 27 -4.32801448563749206e-05
 28  2.44300073795723779e-05
 29  3.28588740015337754e-06
 30 -1.82192414293417463e-06
 31  5.33749830436508975e-05
 32 -1.36253107846986520e-04
 33 -1.49619233876549209e-05
 34 -1.41459692057034979e-05
 35 -6.57060682992950364e-05
 36  1.77109174192538433e-04
 37  2.16475337174631467e-05
 38 -3.40647093923693211e-05
 39 -4.77034554144735551e-05
 40 -4.32246686467393815e-05
 41 -4.81050835998524530e-06
 42  2.33993695969585688e-05
 43  6.68946547426414127e-06
 44 -2.07968882347594957e-05
 45 -8.93962541837787627e-04
 46 -6.06844038518971859e-05
 47 -5.47374457874507292e-04
 48  7.97479981767918569e-06
 49 -1.42044176356390487e-05
 50 -6.01717564478829468e-05
 51 -3.05432855131839212e-04
 52 -3.15847092667470878e-04
 53 -1.44691690167229778e-04
 54  1.38390910856832591e-05
 55  2.65203104458373688e-04
 56  7.19757801106130340e-04
 57 -3.89213133923459523e-04
 58 -2.03910050633233975e-06
 59  4.95374304366310615e-04
 60 -5.56355568430414631e-04
 61  2.75993758473106138e-04
 62  3.52047794601567893e-05
 63 -2.16066358018279385e-04
 64  1.57768479092461908e-04
 65 -2.83561660566302332e-04
 66 -1.29941021719966522e-05
 67 -4.80807338663702001e-05
 68 -4.63645155619376431e-05
 69 -1.31738372457349174e-04
 70 -1.07558397323967284e-03
 71 -2.08771023823427318e-04
 72  4.66389159835533152e-04
 73  2.71065984816045974e-05
 74  4.64664764378831561e-05
 75 -3.53713445827468211e-05
 76  5.63667750048646554e-01
 77  4.66776714135781701e-01
 78  4.79163185967979520e-04
 79 -1.24547497859484811e-04
 80 -9.00193985287550745e-04
 81  2.56653631186897196e-03
 82 -4.43808579610565940e-04
 83  1.01050753103874201e-04
 84  7.85351553233109277e-04
 85  2.43355181318748187e-04
 86  3.95053071293672653e-04
 87 -5.40371640756228235e-05
 88 -4.93798532353087764e-04
 89  2.51798023440604618e-04
 90  1.56499935991443931e-04
 91  1.73619306106911133e-04
 92  6.59761494407850517e-04
 93  1.88581605564341973e-04
 94 -7.68909071398285633e-04
 95  3.74922485691895095e-04
 96  2.99060661079322062e-04
 97  8.51220153744767865e-04
 98  3.29273731641370796e-04
 99 -1.75175250955423044e-04
100  5.32962437753543589e-04
101  2.04266856322039142e-03
102  1.64697502366478905e-03
103 -6.71650670616220821e-05
104 -3.45259037787743186e-05
105 -1.22448209383129667e-04
106  2.80595433774941659e-04
107 -3.68343436664753435e-05
108 -1.59710329883602565e-05
109 -9.99382186481165708e-05
110 -4.51001348044834680e-04
111 -1.66950910075258662e-04
112  5.07509923467093155e-05
113  6.39137410743919796e-05
114  2.80707327585072500e-05
115  2.93976772788126804e-05
116  4.74401932809804792e-06
117 -4.81252787310712074e-05
118  6.31587870482670309e-06
119  1.01178731463744934e-04
120  3.13552139030859724e-04
121 -2.29308991367006858e-04
122  1.42029528786980598e-04
123 -1.95279842793213282e-05
124  7.17423170344366724e-05
125 -3.33990894821557108e-05
126 -5.94594421137487526e-06
127  8.29261517942666079e-05
128 -1.16885241662373885e-04
129 -1.49723930867843039e-05
130 -1.54236376690208355e-05
131  9.38749769886207988e-06
132 -5.12664783499651801e-06
133  6.58650159789472866e-06
134 -4.26356272347455161e-06
135 -2.99939321027183558e-05
136  1.98807777344338403e-05
137 -2.00897026849897717e-05
138  2.19300085944787438e-04
139 -1.15296298306145846e-04
140  1.51447271155186800e-05
141  6.27786847897448755e-05
142 -6.65071722059573597e-06
143  3.66161833696193576e-06
144 -3.39706861488435440e-06
145  4.51311733456097428e-06
146 -1.20107725142174379e-05
147  3.40189163529461096e-04
148  5.52524336211756661e-04
149  1.10806670514992117e-04
150 -2.54830687930109197e-04
151  2.30626444242451367e-06
152 -2.84021697195829650e-05
153 -2.16362297456252114e-05
154  4.89355268505290677e-06
155 -8.30728146181458274e-06
156 -7.14369246280662629e-05
 Sym= A
 Ene= -1.14548754561027550e+01
 Spin= Alpha
 Occup=  1.00000000000000000e+00
  1  2.19679474057858579e-02
  2  1.81724531893906333e-02
  3 -1.31196722729471981e-04
  4  9.22687599399173176e-06
  5 -2.22681899735152909e-04
  6  2.91327264273531306e-04
  7  1.50596487423271198e-04
  8 -2.35502035666132085e-05
  9  3.10484147070050776e-04
 10 -5.89081469260122493e-04
 11  2.71877015502942692e-04
 12  9.56624846890312403e-05
 13 -2.32864249676206710e-04
 14 -1.29120668651424658e-04
 15 -5.39410521832459894e-05
 16  3.81045048966052372e-05
 17 -1.12587726731899727e-04
 18 -2.57219362344941498e-05
 19 -1.25936336199604262e-03
 20 -1.25341740987512158e-04
 21 -2.37264958847350365e-04
 22  5.79386976620833885e-04
 23  1.61700695003072081e-05
 24 -4.38902736066499588e-05
 25  1.19399069173344999e-06
 26  5.63133201780342540e-01
 27  4.66326403072395423e-01
 28 -1.54985578999906762e-03
 29 -1.80485271662139376e-04
 30 -1.15640009821284571e-04
 31  3.22383635864085605e-03
 32  1.72976341952245502e-03
 33  1.56667206358596426e-04
 34  5.48740946621789887e-04
 35  5.26676175408910050e-05
 36 -8.35659729517767148e-04
 37 -1.42224194866825434e-04
 38  1.35752184649872972e-04
 39  8.02071923577101203e-04
 40  3.16113661341307158e-04
 41 -1.32624140479505818e-04
 42  1.54744878846351360e-04
 43  7.47703865231687330e-08
 44  5.20699451537193713e-04
 45  9.52345844375756981e-04
 46  1.11993075114301616e-04
 47  1.32513556714577031e-03
 48  3.27382100472120834e-04
 49 -1.45548520132127645e-04
 50  6.42860501858782485e-04
 51 -1.51925202274454368e-04
 52 -2.09176133379125498e-04
 53  1.36874220507710823e-04
 54  2.08922617258318497e-05
 55  2.25874075836848058e-05
 56  5.34815449421429550e-04
 57  8.66684279808656766e-04
 58  1.11672213048610259e-04
 59 -1.41292178325337842e-04
 60 -1.09150614337886304e-04
 61 -3.59198639539804604e-04
 62 -2.23856743699016601e-05
 63  2.84880743193647245e-04
 64 -3.15617105069248465e-04
 65  7.59026417359725684e-05
 66  6.27320200977261381e-06
 67  2.82844200124557203e-04
 68  8.70317489921751804e-05
 69 -2.61088215126649035e-03
 70  1.35980005674163199e-03
 71  1.19685663589658039e-04
 72 -1.45163827131513843e-03
 73  2.69843782562464860e-05
 74  6.54824320617263970e-05
 75 -3.04760917946720232e-05
 76  5.07319007438905529e-05
 77  1.69602475071684405e-05
 78 -9.90922442872553711e-06
 79  6.54330390794992668e-06
 80  2.18431054504641167e-05
 81  1.66590083613565821e-04
 82  1.11023127185992096e-04
 83 -2.47953708154116397e-05
 84 -1.95851386322746206e-04
 85 -3.96470184893697958e-04
 86 -3.19548100096262073e-04
 87 -1.41503732399981632e-05
 88  1.74649574791131657e-04
 89  2.05250844870291561e-05
 90 -1.02915905764898252e-04
 91 -7.19583123272829121e-06
 92 -2.03030082029867554e-06
 93 -2.10830433873611252e-05
 94  3.33466200238042307e-03
 95  3.12757332219436898e-04
 96 -1.82016758924537269e-04
 97 -1.38196379064811918e-03
 98  2.02921896130877888e-05
 99 -3.15042003157624332e-05
100 -1.65231427065356986e-04
101 -8.71323582073614289e-05
102 -7.66692240383571281e-05
103  6.35432906115492968e-06
104  3.18485002619915097e-06
105  1.54591646284736635e-05
106  2.10270251371819279e-06
107 -4.42463572162936098e-05
108 -1.28912873982655024e-05
109 -6.59657432073964325e-05
110  1.61998454939921757e-04
111  9.07547610130519515e-05
112  2.43156733639931860e-05
113 -4.80872058250044287e-06
114  2.25664478374410579e-05
115  2.04038587639533280e-05
116  8.24560307070450250e-06
117 -5.11158436671969228e-06
118  2.44818166861811436e-06
119 -6.32723669222223691e-05
120 -6.36451062527055591e-04
121 -6.84208765031558616e-05
122 -1.73627058154264698e-04
123  6.22633454805859728e-06
124 -3.84491293012096969e-05
125  1.98745643037884742e-05
126  2.87089763067088990e-06
127  7.99381998844824698e-06
128 -2.45897701223356786e-05
129  5.07937731259808036e-05
130  3.79173133258880110e-05
131  6.91034290710486145e-06
132 -6.81893242195074369e-07
133  7.13868518899433113e-06
134  2.08217233695880819e-05
135 -1.34740154224434619e-05
136  7.67654160687663892e-06
137 -3.48945719828496357e-05
138  2.08593716896969333e-04
139  8.71909956801530830e-05
140 -3.13472604502320362e-05
141 -7.84018517200518375e-05
142  3.86350672618155769e-06
143  1.38551006499379762e-05
144 -6.56760600416460072e-07
145 -4.65726503525310253e-06
146 -5.06882512099658184e-06
147  1.64374302610623742e-04
148 -3.09245707148730724e-04
149  2.31115446079855724e-04
150  2.84388827996840852e-04
151 -3.44190581957454506e-06
152 -2.17055454860856189e-05
153 -1.32803570075762521e-05
154 -2.46026567146888574e-06
155  2.29113543427941047e-05
156 -9.21661612656951725e-05
 Sym= A
 Ene= -1.14341487598693483e+01
 Spin= Alpha
 Occup=  1.00000000000000000e+00
  1 -5.62648911321049328e-01
  2 -4.66071643629702770e-01
  3  1.40798322926918824e-04
  4 -2.22496177762675232e-06
  5 -4.84388271997665627e-05
  6 -5.33313677367795030e-03
  7  1.81733845710071665e-04
  8 -2.04877180291793393e-05
  9  5.39533927580885934e-04
 10  1.99537268389117549e-03
 11 -5.81669561722960183e-04
 12 -1.42391112049112324e-04
 13  3.45266415277115766e-05
 14 -9.72785654869208656e-05
 15 -3.08168308576506735e-04
 16 -3.67622275795475512e-05
 17 -4.61537551891110173e-05
 18  2.47046974027595646e-05
 19 -2.34042014167910135e-03
 20  7.33271888091160040e-04
 21  2.85404450824123428e-04
 22  2.53714913117007235e-04
 23 -4.07324645938189037e-04
 24  1.56234991025901285e-04
 25 -2.62959183307006456e-04
 26  2.22223608940114968e-02
 27  1.84516149978537734e-02
 28 -2.11015285537600561e-04
 29  5.73001271320969491e-06
 30 -2.58699966314841117e-04
 31 -1.07349624410216842e-04
 32  1.87344685530876518e-04
 33  2.44837287004828658e-06
 34  1.48927601035831028e-04
 35 -4.22402264497226149e-04
 36  9.25709058709622433e-05
 37  1.00809476426488365e-04
 38 -5.02648416931086406e-04
 39  1.13240335094784515e-04
 40  6.81899203370642563e-05
 41 -2.22426669753125702e-05
 42  8.76067082345704243e-05
 43  1.54319808201795965e-05
 44  1.37973637017052174e-03
 45  1.44609130315901269e-04
 46 -1.33880494115945356e-04
 47 -1.38446057822542814e-05
 48  2.98472993434797700e-05
 49 -5.60282182354311569e-05
 50 -2.07632650430177024e-04
 51 -1.25454191754612408e-05
 52 -1.63459606396957612e-05
 53  2.86037572618816837e-06
 54 -1.54152579135335657e-06
 55  1.40123089089007401e-05
 56  4.03938368516446939e-05
 57  1.14882883637523167e-04
 58  1.48006064514945427e-05
 59 -4.20642660819635261e-05
 60  1.16337085515183132e-04
 61  6.27067377874349655e-05
 62 -1.93739301809505335e-05
 63  6.77871015147024126e-05
 64 -5.52196867872761866e-05
 65 -3.71409048967434099e-06
 66  1.33671851203062095e-06
 67  2.86881756170249206e-05
 68  9.55299752482066542e-06
 69  2.89887951422057371e-03
 70 -5.82961411111011015e-04
 71  1.09995387953033044e-05
 72  7.09781832884467381e-04
 73  5.17616821360528157e-06
 74  1.85406645320706899e-05
 75 -7.26715873179624346e-05
 76 -2.91397157750391473e-05
 77 -2.81786402610125091e-05
 78  1.21212154665077226e-06
 79  8.06726243440507268e-07
 80  2.25709625587503716e-06
 81  1.25520533561230606e-05
 82  2.07001566868968438e-05
 83 -2.25936348706247516e-06
 84 -2.50822932414690046e-05
 85  3.92210771515260763e-05
 86  9.92248511979402820e-05
 87  5.39118267170291435e-05
 88 -3.76804797273821458e-05
 89 -2.31845998742915674e-07
 90 -2.11619279229385329e-05
 91  4.74652896321454786e-06
 92  7.18679487978733011e-08
 93  1.11209766214078458e-07
 94 -1.36816114106659949e-03
 95 -1.95944552806807118e-04
 96  1.07873753807069826e-04
 97  1.19815673907558147e-03
 98 -1.00664462678926458e-06
 99  2.94044680351355656e-05
100  1.84080206174565172e-05
101  2.80472643150626378e-04
102  2.31074274576247485e-04
103  8.02839247527295382e-06
104 -7.56343044459668662e-06
105 -2.15536712166444250e-06
106  4.43938194329607897e-05
107 -1.62132444625946194e-05
108  2.88951831385313382e-05
109 -1.08170645486398350e-05
110 -1.18883723436369925e-04
111 -1.08646752650369617e-04
112 -1.79998162848048530e-04
113  6.45951635198034792e-05
114  1.54747686613164559e-05
115  1.14966906934798251e-05
116 -2.33063625494792027e-06
117 -1.43406908377127074e-05
118  1.85237648204294977e-05
119  1.68776957067405211e-04
120  8.71506625633215672e-04
121  1.24666841456832979e-04
122  3.10212362655706874e-04
123 -1.92266563212110344e-05
124  1.24918082361464016e-04
125  2.84605408526153441e-05
126  3.43183872345989980e-06
127 -4.93975007320347832e-05
128 -3.34601684596585913e-05
129 -7.51195343302342357e-03
130 -6.14800662610678981e-03
131 -5.17195834683552186e-05
132 -3.35910950008389664e-05
133  1.16366824370718231e-04
134 -3.75726673955562582e-04
135 -1.93512941291937068e-04
136 -6.61241973905032134e-05
137  3.29826099411249601e-04
138 -4.57268880488750093e-04
139 -3.25481441849775297e-05
140  9.65167629247970092e-05
141  2.28039871474891711e-04
142 -1.06434648520265245e-04
143  1.02062951532942079e-04
144  4.75461792984580879e-05
145  2.84830732065745489e-05
146 -2.58339649197540548e-05
147 -9.64791069124265664e-04
148  3.32464424132436021e-04
149 -3.94001553390552022e-04
150 -2.73020329337563743e-04
151  6.24462712425286647e-06
152  5.19804175122065841e-05
153  1.01797479816858230e-04
154 -2.22330597305779764e-06
155 -4.87044230326183074e-05
156  1.62337927086302124e-04
 Sym= A
 Ene= -1.14315720618972563e+01
 Spin= Alpha
 Occup=  1.00000000000000000e+00
  1  1.85131256322653776e-04
  2  1.54896768286293731e-04
  3  4.39719386070025715e-07
  4  1.86818028636592313e-06
  5 -2.59498400583936776e-06
  6 -3.01662735491397799e-05
  7  2.07552375288070044e-05
  8 -1.33631704534056802e-05
  9  3.04402072675217161e-06
 10 -1.08628304660948071e-04
 11 -3.13876532539365973e-05
 12 -1.30114167170457288e-05
 13  6.97154894480490043e-05
 14  9.27820947978078452e-06
 15 -1.07460010244333882e-05
 16 -1.07322563957441676e-05
 17  1.15716289166465239e-05
 18 -7.66472193759348711e-06
 19 -2.26422645914464184e-03
 20  3.70170254270656195e-04
 21  1.85939563416583878e-05
 22 -5.44167854822061575e-04
 23 -4.48603881355720039e-07
 24  1.55521926829920046e-05
 25  8.97489277754037393e-05
 26  8.20231748701128941e-05
 27  7.04788757611734309e-05
 28  4.49840166495251406e-06
 29  2.74082193400591719e-06
 30  3.27404176038307974e-06
 31 -3.12931947834158914e-05
 32 -1.85866139597457494e-05
 33 -1.66489142772297306e-05
 34 -2.55986806947255353e-05
 35  3.63920592263297649e-04
 36 -1.22732515375950294e-04
 37 -7.97975590701923915e-06
 38  1.67600024173757269e-04
 39 -5.86974609583157621e-06
 40  2.07934705875413203e-06
 41  1.15643338609537404e-06
 42  1.59148817888496650e-05
 43  1.31872129663051220e-07
 44  1.79338606474075627e-03
 45 -4.89045503990279866e-04
 46  1.01189458178679804e-05
 47  2.45507495870739387e-04
 48 -4.08077954038368122e-06
 49  2.75991627990525603e-05
 50  3.21500622963021929e-05
 51  7.88231528948326426e-06
 52  2.95258193481864105e-06
 53  2.96679985726585942e-06
 54  2.41794507387807595e-06
 55 -8.05332779188974559e-06
 56  2.30768081881311990e-05
 57 -2.32707396831993101e-05
 58 -1.36639193104100297e-05
 59  7.40213441197746271e-06
 60 -4.53148930038192244e-04
 61 -2.61755468306742415e-04
 62 -3.56825052606581566e-05
 63 -2.99098026856216661e-04
 64  2.08835764965435534e-05
 65 -1.60360697264332863e-05
 66  6.19440074550291733e-06
 67 -8.09112444047967397e-06
 68 -1.74593423272455385e-06
 69 -2.88837196767796622e-03
 70 -2.55197867228302709e-04
 71 -1.47063389769218702e-04
 72 -4.12785613424386305e-04
 73  9.79912394073127143e-06
 74 -6.81669036808359836e-05
 75 -2.79636656121972255e-05
 76 -2.14661237198305764e-03
 77 -1.85642898748031283e-03
 78  5.64467421238190842e-05
 79  2.29262026188314966e-05
 80  1.01999913498613176e-04
 81  2.65182739723592964e-04
 82  2.02303637882260065e-04
 83  8.03582861924266150e-05
 84  4.04475896554201328e-04
 85  1.15257740939551565e-03
 86  5.56788093998648393e-04
 87  1.06076763304462895e-04
 88  3.57806289571657461e-04
 89  1.09627817023613897e-04