[Molden Format]
[Atoms] (AU)
C    1    6         2.692996544949       0.121705921384      -0.214878868000
H    2    1         4.736250256935       0.348478914590      -0.219160987400
C    3    6         1.372372402584       0.196467266359      -2.381511097964
H    4    1         2.319246322883       0.513610742337      -4.178212053389
C    5    6        -1.372372402584      -0.196467266359      -2.381511097964
H    6    1        -2.319246322883      -0.513610742337      -4.178212053389
C    7    6        -2.692996544949      -0.121705921384      -0.214878868000
H    8    1        -4.736250256935      -0.348478914590      -0.219160987400
C    9    6        -1.382905736008       0.452434638477       2.258843117009
H   10    1        -1.442483131565       2.513277921239       2.573556405189
H   11    1        -2.403940257347      -0.396593231470       3.849140815080
C   12    6         1.382905736008      -0.452434638477       2.258843117009
H   13    1         1.442483131565      -2.513277921239       2.573556405189
H   14    1         2.403940257347       0.396593231470       3.849140815080
[GTO]
  1 0
 s    6  1.00
     4563.2400000000         0.0019666500
      682.0240000000         0.0152306000
      154.9730000000         0.0761269000
       44.4553000000         0.2608010000
       13.0290000000         0.6164620000
        1.8277300000         0.2210060000
 s    3  1.00
       20.9642000000         0.1146600000
        4.8033100000         0.9199990000
        1.4593300000        -0.0030306800
 p    3  1.00
       20.9642000000         0.0402487000
        4.8033100000         0.2375940000
        1.4593300000         0.8158540000
 s    1  1.00
        0.4834560000         1.0000000000
 p    1  1.00
        0.4834560000         1.0000000000
 s    1  1.00
        0.1455850000         1.0000000000
 p    1  1.00
        0.1455850000         1.0000000000
 d    1  1.00
        0.6260000000         1.0000000000
 s    1  1.00
        0.0438000000         1.0000000000
 p    1  1.00
        0.0438000000         1.0000000000

  2 0
 s    3  1.00
       33.8650000000         0.0254938000
        5.0947900000         0.1903730000
        1.1587900000         0.8521610000
 s    1  1.00
        0.3258400000         1.0000000000
 s    1  1.00
        0.1027410000         1.0000000000

  3 0
 s    6  1.00
     4563.2400000000         0.0019666500
      682.0240000000         0.0152306000
      154.9730000000         0.0761269000
       44.4553000000         0.2608010000
       13.0290000000         0.6164620000
        1.8277300000         0.2210060000
 s    3  1.00
       20.9642000000         0.1146600000
        4.8033100000         0.9199990000
        1.4593300000        -0.0030306800
 p    3  1.00
       20.9642000000         0.0402487000
        4.8033100000         0.2375940000
        1.4593300000         0.8158540000
 s    1  1.00
        0.4834560000         1.0000000000
 p    1  1.00
        0.4834560000         1.0000000000
 s    1  1.00
        0.1455850000         1.0000000000
 p    1  1.00
        0.1455850000         1.0000000000
 d    1  1.00
        0.6260000000         1.0000000000
 s    1  1.00
        0.0438000000         1.0000000000
 p    1  1.00
        0.0438000000         1.0000000000

  4 0
 s    3  1.00
       33.8650000000         0.0254938000
        5.0947900000         0.1903730000
        1.1587900000         0.8521610000
 s    1  1.00
        0.3258400000         1.0000000000
 s    1  1.00
        0.1027410000         1.0000000000

  5 0
 s    6  1.00
     4563.2400000000         0.0019666500
      682.0240000000         0.0152306000
      154.9730000000         0.0761269000
       44.4553000000         0.2608010000
       13.0290000000         0.6164620000
        1.8277300000         0.2210060000
 s    3  1.00
       20.9642000000         0.1146600000
        4.8033100000         0.9199990000
        1.4593300000        -0.0030306800
 p    3  1.00
       20.9642000000         0.0402487000
        4.8033100000         0.2375940000
        1.4593300000         0.8158540000
 s    1  1.00
        0.4834560000         1.0000000000
 p    1  1.00
        0.4834560000         1.0000000000
 s    1  1.00
        0.1455850000         1.0000000000
 p    1  1.00
        0.1455850000         1.0000000000
 d    1  1.00
        0.6260000000         1.0000000000
 s    1  1.00
        0.0438000000         1.0000000000
 p    1  1.00
        0.0438000000         1.0000000000

  6 0
 s    3  1.00
       33.8650000000         0.0254938000
        5.0947900000         0.1903730000
        1.1587900000         0.8521610000
 s    1  1.00
        0.3258400000         1.0000000000
 s    1  1.00
        0.1027410000         1.0000000000

  7 0
 s    6  1.00
     4563.2400000000         0.0019666500
      682.0240000000         0.0152306000
      154.9730000000         0.0761269000
       44.4553000000         0.2608010000
       13.0290000000         0.6164620000
        1.8277300000         0.2210060000
 s    3  1.00
       20.9642000000         0.1146600000
        4.8033100000         0.9199990000
        1.4593300000        -0.0030306800
 p    3  1.00
       20.9642000000         0.0402487000
        4.8033100000         0.2375940000
        1.4593300000         0.8158540000
 s    1  1.00
        0.4834560000         1.0000000000
 p    1  1.00
        0.4834560000         1.0000000000
 s    1  1.00
        0.1455850000         1.0000000000
 p    1  1.00
        0.1455850000         1.0000000000
 d    1  1.00
        0.6260000000         1.0000000000
 s    1  1.00
        0.0438000000         1.0000000000
 p    1  1.00
        0.0438000000         1.0000000000

  8 0
 s    3  1.00
       33.8650000000         0.0254938000
        5.0947900000         0.1903730000
        1.1587900000         0.8521610000
 s    1  1.00
        0.3258400000         1.0000000000
 s    1  1.00
        0.1027410000         1.0000000000

  9 0
 s    6  1.00
     4563.2400000000         0.0019666500
      682.0240000000         0.0152306000
      154.9730000000         0.0761269000
       44.4553000000         0.2608010000
       13.0290000000         0.6164620000
        1.8277300000         0.2210060000
 s    3  1.00
       20.9642000000         0.1146600000
        4.8033100000         0.9199990000
        1.4593300000        -0.0030306800
 p    3  1.00
       20.9642000000         0.0402487000
        4.8033100000         0.2375940000
        1.4593300000         0.8158540000
 s    1  1.00
        0.4834560000         1.0000000000
 p    1  1.00
        0.4834560000         1.0000000000
 s    1  1.00
        0.1455850000         1.0000000000
 p    1  1.00
        0.1455850000         1.0000000000
 d    1  1.00
        0.6260000000         1.0000000000
 s    1  1.00
        0.0438000000         1.0000000000
 p    1  1.00
        0.0438000000         1.0000000000

  10 0
 s    3  1.00
       33.8650000000         0.0254938000
        5.0947900000         0.1903730000
        1.1587900000         0.8521610000
 s    1  1.00
        0.3258400000         1.0000000000
 s    1  1.00
        0.1027410000         1.0000000000

  11 0
 s    3  1.00
       33.8650000000         0.0254938000
        5.0947900000         0.1903730000
        1.1587900000         0.8521610000
 s    1  1.00
        0.3258400000         1.0000000000
 s    1  1.00
        0.1027410000         1.0000000000

  12 0
 s    6  1.00
     4563.2400000000         0.0019666500
      682.0240000000         0.0152306000
      154.9730000000         0.0761269000
       44.4553000000         0.2608010000
       13.0290000000         0.6164620000
        1.8277300000         0.2210060000
 s    3  1.00
       20.9642000000         0.1146600000
        4.8033100000         0.9199990000
        1.4593300000        -0.0030306800
 p    3  1.00
       20.9642000000         0.0402487000
        4.8033100000         0.2375940000
        1.4593300000         0.8158540000
 s    1  1.00
        0.4834560000         1.0000000000
 p    1  1.00
        0.4834560000         1.0000000000
 s    1  1.00
        0.1455850000         1.0000000000
 p    1  1.00
        0.1455850000         1.0000000000
 d    1  1.00
        0.6260000000         1.0000000000
 s    1  1.00
        0.0438000000         1.0000000000
 p    1  1.00
        0.0438000000         1.0000000000

  13 0
 s    3  1.00
       33.8650000000         0.0254938000
        5.0947900000         0.1903730000
        1.1587900000         0.8521610000
 s    1  1.00
        0.3258400000         1.0000000000
 s    1  1.00
        0.1027410000         1.0000000000

  14 0
 s    3  1.00
       33.8650000000         0.0254938000
        5.0947900000         0.1903730000
        1.1587900000         0.8521610000
 s    1  1.00
        0.3258400000         1.0000000000
 s    1  1.00
        0.1027410000         1.0000000000

[5D]
[9G]

[MO]
 Sym= A
 Ene= -1.37472939419202795e+01
 Spin= Alpha
 Occup=  1.00000000000000000e+00
  1 -3.75895611790433369e-04
  2  1.71155095802052039e-03
  3 -1.19151243051203578e-03
  4  1.51615332245395303e-04
  5 -2.52864309768165672e-03
  6 -6.14916084748330042e-03
  7  8.17421597537789160e-03
  8 -8.36254738693847878e-04
  9  1.60672029099525014e-02
 10  7.45167268390757066e-03
 11 -1.00120253272651550e-02
 12 -2.70480633509143499e-04
 13 -4.36589966208512665e-03
 14 -5.23747009749757787e-03
 15 -7.99954398693049698e-03
 16  1.57119244333519886e-04
 17 -1.78103524389006574e-03
 18  5.03559326942686785e-04
 19 -5.45965659339930354e-02
 20  6.48902479617092381e-03
 21 -8.47377092588926070e-04
 22  6.75364385078563913e-03
 23 -1.07219358515899779e-03
 24  6.43844391577510296e-04
 25  6.06406797406871222e-03
 26 -6.23865930146672798e-01
 27 -4.20934885371548051e-01
 28  8.70481385559420466e-06
 29  2.48371224606986057e-04
 30 -2.25586101288475106e-03
 31  5.71584432156544350e-02
 32  1.65708200986379017e-03
 33 -1.33475294526403765e-03
 34  1.36220538056505899e-02
 35 -5.22741969267278631e-02
 36  7.48998999331647059e-03
 37  2.07286213611128714e-03
 38 -1.35356616961654110e-02
 39  2.54098888198384587e-03
 40  5.93160796770587397e-03
 41 -2.41349498782962737e-04
 42  4.01556142092257973e-03
 43  4.82326991888353343e-04
 44  9.31890848711363767e-02
 45 -8.17118964210502771e-03
 46 -3.01403793322272068e-03
 47  2.03198768747815534e-02
 48  2.79593125835153134e-04
 49 -2.97001356016184277e-03
 50  3.32282405786136700e-03
 51 -8.97125790384691209e-05
 52  5.06267204036475022e-04
 53  2.18748782717969161e-03
 54  2.47183141549067980e-04
 55 -3.39430426650597929e-04
 56 -6.24242433670744935e-04
 57 -8.78071022324571938e-03
 58 -8.90261671184761137e-04
 59  2.28848205465797703e-03
 60  1.57450931611745476e-02
 61  9.91478453291673618e-03
 62  1.75505534368470672e-03
 63  9.07501136796439942e-03
 64  3.51136024587635600e-03
 65 -8.36627362570469576e-04
 66  3.09953782682111741e-04
 67 -3.81055643815980845e-03
 68 -1.35881030115064783e-03
 69 -6.58579930422724252e-02
 70 -5.05429287488559555e-03
 71  2.04313509394359342e-04
 72 -7.50522584422658959e-03
 73 -7.10768152024658347e-04
 74  1.25560354849213614e-03
 75  5.85658326900316811e-03
 76 -6.22476452505512479e-05
 77  3.36016910543934864e-04
 78  1.88810891342565217e-04
 79  3.41926707875575802e-05
 80 -3.93802886476295102e-04
 81 -1.62628830671132044e-03
 82 -2.14566947063610019e-03
 83 -1.11682529686765172e-04
 84  3.19779989410049273e-03
 85 -1.12253854241393357e-02
 86 -5.14181486131992226e-03
 87 -6.11715864323150466e-04
 88 -1.70797474636716850e-03
 89 -5.94709716989534056e-04
 90  1.69069400141214966e-03
 91  1.42456665351415815e-04
 92  7.71031919700937895e-05
 93  1.60968654155296278e-04
 94  1.87608946277643823e-02
 95  4.22422163505945230e-03
 96 -1.30207962405190633e-03
 97 -9.15939959568301022e-03
 98 -2.31951389265486966e-04
 99 -7.54739452841414363e-04
100  1.04246582176286936e-03
101 -4.08409917482279290e-05
102  2.70596607615030782e-04
103  2.88471575667717302e-05
104 -7.69452125682932247e-05
105 -5.77921988988108718e-05
106 -1.94282651848847604e-03
107 -3.45191587608074133e-04
108  4.14349324997612101e-04
109  6.41659238123899007e-04
110  1.04032365503152011e-02
111  1.73671212187511510e-03
112 -4.98941123861402938e-04
113 -3.01187889951171073e-03
114  7.20091554574914787e-05
115 -3.54365543452709415e-04
116 -5.11127152469185376e-05
117 -3.22179733733712507e-05
118  1.14481471669446898e-04
119 -1.90145116709851889e-02
120 -1.00240116681048538e-02
121  2.03669148219419812e-06
122  6.76365138518424981e-04
123  2.53098412083702605e-04
124 -1.91787037526990382e-03
125  1.56193008785233955e-03
126 -6.54382135038769782e-05
127 -6.83366623473504842e-04
128  1.07994983703053643e-03
129 -5.21982039367206100e-05
130  3.30616893731777598e-04
131  2.70830485698877880e-04
132  3.83302611550363380e-05
133 -4.64548315186456698e-04
134 -1.10981943458005180e-03
135 -1.25400908880514872e-03
136 -3.92134196385471290e-04
137  2.67556766972131422e-03
138 -6.18073161784608947e-03
139  2.40827494399296384e-03
140 -2.37496260273012665e-03
141  4.84803452046508854e-04
142 -1.01026947058455272e-03
143  1.30501751086683029e-03
144  5.55401697683519536e-04
145  2.37040878775162550e-04
146 -5.77093466086400295e-05
147  2.76146130074412660e-02
148 -5.06260702014610202e-03
149  4.14117396766892215e-03
150 -1.31595161591148879e-03
151  1.52465627421188935e-04
152 -7.18948597944091337e-04
153 -1.32736892305018207e-03
154 -4.18419390860325612e-04
155  6.57159129448080985e-04
156  3.52270163905814580e-05
 Sym= A
 Ene= -1.15220067468688114e+01
 Spin= Alpha
 Occup=  1.00000000000000000e+00
  1 -5.63667750130640965e-01
  2 -4.66776714223133771e-01
  3  4.79163484524771711e-04
  4 -1.24547443834994201e-04
  5  9.00194278194190551e-04
  6 -2.56653572707152538e-03
  7 -4.43808780091114173e-04
  8  1.01050750172756681e-04
  9 -7.85351809542436988e-04
 10 -2.43355912941828936e-04
 11  3.95053484473138013e-04
 12 -5.40371116544988972e-05
 13  4.93798677203210979e-04
 14 -2.51798085305344295e-04
 15  1.56499995858617758e-04
 16  1.73619343962409681e-04
 17 -6.59761631236090878e-04
 18 -1.88581637557549346e-04
 19  7.68909917321547519e-04
 20  3.74922468350207710e-04
 21  2.99060682529223541e-04
 22 -8.51220535868760903e-04
 23 -3.29273693841881238e-04
 24  1.75175266588331504e-04
 25 -5.32962619444382938e-04
 26  3.05432831177012158e-04
 27  3.15847083394181548e-04
 28 -1.44691683039351303e-04
 29  1.38390916542511823e-05
 30 -2.65203100071514160e-04
 31 -7.19757862046713865e-04
 32 -3.89213191767630870e-04
 33 -2.03909647818564445e-06
 34 -4.95374380648325933e-04
 35  5.56355980031865687e-04
 36  2.75993800455413254e-04
 37  3.52047508855827333e-05
 38  2.16066597034636438e-04
 39 -1.57768511699437730e-04
 40 -2.83561696248045266e-04
 41 -1.29940983766629166e-05
 42  4.80807363576036701e-05
 43  4.63645216182327705e-05
 44  1.31738018625049289e-04
 45 -1.07558440551902080e-03
 46 -2.08771054197111599e-04
 47 -4.66389321845463254e-04
 48 -2.71066041134705393e-05
 49 -4.64664774838353196e-05
 50  3.53714204247527686e-05
 51  4.04845259308493410e-05
 52  4.32802239513444540e-05
 53  2.44300135225431502e-05
 54  3.28588812498099234e-06
 55  1.82192172651312633e-06
 56 -5.33750017463607970e-05
 57 -1.36253149180834974e-04
 58 -1.49619310982655912e-05
 59  1.41459812527973806e-05
 60  6.57060655130465367e-05
 61  1.77109207813925927e-04
 62  2.16475484721986761e-05
 63  3.40647291149278548e-05
 64  4.77034717375970788e-05
 65 -4.32246710294852918e-05
 66 -4.81050987614254609e-06
 67 -2.33993763717994465e-05
 68 -6.68946863167889637e-06
 69  2.07961822048048112e-05
 70 -8.93962682379921005e-04
 71 -6.06844292786149985e-05
 72  5.47374476130715903e-04
 73 -7.97480332940934643e-06
 74  1.42044253199987094e-05
 75  6.01717983844467604e-05
 76  2.72283013834066693e-05
 77  2.95916937179713273e-05
 78  6.75643914603796458e-06
 79 -7.98951087996240676e-07
 80 -7.18710901010088379e-06
 81 -3.74078491425638632e-05
 82 -3.66193623684765978e-05
 83  2.98829676241788344e-06
 84  6.28318572109313968e-05
 85  8.83296366043173339e-06
 86  3.43477172357173054e-05
 87 -6.60138714996498301e-06
 88 -9.67101734223608232e-05
 89 -1.40368721100384376e-05
 90  2.06006278473115240e-05
 91 -3.70064748082838896e-06
 92 -1.11406714627487351e-06
 93  5.97165456564533171e-06
 94 -5.90753824163135592e-04
 95 -1.19234032344302442e-05
 96  8.68610304863457551e-05
 97  8.82931479278222246e-04
 98 -6.61346999173629224e-06
 99  6.00023895143851923e-06
100  2.03187467327667271e-05
101  1.49724019607800008e-05
102  1.54236458355803729e-05
103  9.38749761742057181e-06
104 -5.12664703529416079e-06
105 -6.58650163520061431e-06
106  4.26355265755278199e-06
107 -2.99939371269667783e-05
108  1.98807745289532511e-05
109  2.00897068388973397e-05
110 -2.19300124687629136e-04
111 -1.15296299013478219e-04
112  1.51447961890580538e-05
113 -6.27787295492166934e-05
114  6.65071621167560042e-06
115  3.66161513637571213e-06
116 -3.39706797114212029e-06
117 -4.51311361617009130e-06
118  1.20107715717763749e-05
119 -3.40189313740819964e-04
120  5.52524282839806139e-04
121  1.10806676744848524e-04
122  2.54830677180278755e-04
123 -2.30625955711089142e-06
124  2.84021399141327971e-05
125  2.16362244138788009e-05
126 -4.89355532242888366e-06
127  8.30730418799650134e-06
128  7.14369604561923734e-05
129 -2.04266978021508958e-03
130 -1.64697603740296536e-03
131 -6.71650746988433818e-05
132 -3.45259077317863425e-05
133  1.22448218873974274e-04
134 -2.80595455913790410e-04
135 -3.68342931877141443e-05
136 -1.59710162546475067e-05
137  9.99381567271272387e-05
138  4.51001708213099792e-04
139 -1.66950956422167124e-04
140  5.07509786373389930e-05
141 -6.39138653574990872e-05
142 -2.80707147305515992e-05
143  2.93976480824757599e-05
144  4.74400646188599674e-06
145  4.81252860582480501e-05
146 -6.31587215746349608e-06
147 -1.01178397441853936e-04
148  3.13552134636455395e-04
149 -2.29308954151031901e-04
150 -1.42029518829264766e-04
151  1.95279900688482468e-05
152 -7.17423551455432688e-05
153  3.33990704470364658e-05
154  5.94594676449863466e-06
155 -8.29261659894160854e-05
156  1.16885240929239385e-04
 Sym= A
 Ene= -1.14548754871576950e+01
 Spin= Alpha
 Occup=  1.00000000000000000e+00
  1 -5.07319947052972556e-05
  2 -1.69603283932756567e-05
  3 -9.90921775136131593e-06
  4  6.54330373787944805e-06
  5 -2.18431013797928637e-05
  6 -1.66590074763697907e-04
  7  1.11023094564692052e-04
  8 -2.47953735674519956e-05
  9  1.95851365052809547e-04
 10  3.96470533208968031e-04
 11 -3.19548246297186216e-04
 12 -1.41503858107565165e-05
 13 -1.74649511832355525e-04
 14 -2.05250868370012949e-05
 15 -1.02915899373836242e-04
 16 -7.19583053468603634e-06
 17  2.03030066439494874e-06
 18  2.10830417501998155e-05
 19 -3.33466282556088740e-03
 20  3.12757536681166238e-04
 21 -1.82016742614100354e-04
 22  1.38196373773637519e-03
 23 -2.02921882660880506e-05
 24  3.15042106941318685e-05
 25  1.65231410113605569e-04
 26  1.51925194323514412e-04
 27  2.09176140274145263e-04
 28  1.36874228212045471e-04
 29  2.08922625059152857e-05
 30 -2.25874040150621915e-05
 31 -5.34815476841056991e-04
 32  8.66684389184325227e-04
 33  1.11672230031966874e-04
 34  1.41292167974329841e-04
 35  1.09149800759332711e-04
 36 -3.59198279305518247e-04
 37 -2.23856167176999762e-05
 38 -2.84881016002908917e-04
 39  3.15617100712318663e-04
 40  7.59026457664280896e-05
 41  6.27320376793436134e-06
 42 -2.82844254231366080e-04
 43 -8.70317612725809173e-05
 44  2.61088453357369429e-03
 45  1.35979952323945401e-03
 46  1.19685613963468177e-04
 47  1.45163844173441759e-03
 48 -2.69843715655445012e-05
 49 -6.54824547369949338e-05
 50  3.04759520930181289e-05
 51 -5.63133201065298294e-01
 52 -4.66326402468882628e-01
 53 -1.54985582384560496e-03
 54 -1.80485287798928167e-04
 55  1.15639894506898601e-04
 56 -3.22383762583600955e-03
 57  1.72976360010658036e-03
 58  1.56667236921837654e-04
 59 -5.48741001486741011e-04
 60 -5.26658812145265723e-05
 61 -8.35659405189948207e-04
 62 -1.42224102855211421e-04
 63 -1.35751667988288742e-04
 64 -8.02071777335543927e-04
 65  3.16113692520468787e-04
 66 -1.32624042912607871e-04
 67 -1.54744351683585717e-04
 68 -7.46171309029256281e-08
 69 -5.20703434111242903e-04
 70  9.52345486798638566e-04
 71  1.11992953936588502e-04
 72 -1.32513613001499614e-03
 73 -3.27382107878213067e-04
 74  1.45548540719850984e-04
 75 -6.42860408476146009e-04
 76 -2.19679602463196087e-02
 77 -1.81724638339827958e-02
 78 -1.31196731900781255e-04
 79  9.22688078019889336e-06
 80  2.22681926829003320e-04
 81 -2.91327247322611038e-04
 82  1.50596530563829734e-04
 83 -2.35502130549150492e-05
 84 -3.10484234744353490e-04
 85  5.89080605273369258e-04
 86  2.71876526705180769e-04
 87  9.56624435839897099e-05
 88  2.32864385248531398e-04
 89  1.29120688397575743e-04
 90 -5.39411238179957300e-05
 91  3.81044973696358398e-05
 92  1.12587709400907820e-04
 93  2.57219195927997965e-05
 94  1.25936562552017291e-03
 95 -1.25341385899661921e-04
 96 -2.37264937193326983e-04
 97 -5.79387303759290834e-04
 98 -1.61700643055794154e-05
 99  4.38902551753771341e-05
100 -1.19416973481197049e-06
101 -5.07938276981660482e-05
102 -3.79173620961686920e-05
103  6.91034827212813779e-06
104 -6.81891483749820359e-07
105 -7.13867049683565948e-06
106 -2.08217271335216572e-05
107 -1.34740336019247858e-05
108  7.67653475902762311e-06
109  3.48945143438155803e-05
110 -2.08593314263094660e-04
111  8.71910700650988771e-05
112 -3.13473125214739943e-05
113  7.84017449947099624e-05
114 -3.86348894631433803e-06
115  1.38551142161868237e-05
116 -6.56751873818110815e-07
117  4.65725806572015006e-06
118  5.06882254840690332e-06
119 -1.64375086058272268e-04
120 -3.09245840516291859e-04
121  2.31115489930352824e-04
122 -2.84388700485310329e-04
123  3.44190383552235724e-06
124  2.17055354084042673e-05
125  1.32803908895115378e-05
126  2.46027239236344849e-06
127 -2.29113725300641541e-05
128  9.21661441619069110e-05
129  8.71321347063765247e-05
130  7.66690349415295492e-05
131  6.35432994781775757e-06
132  3.18484862270042845e-06
133 -1.54591635002079088e-05
134 -2.10266957514661215e-06
135 -4.42463638720073775e-05
136 -1.28912806748585574e-05
137  6.59657371496896603e-05
138 -1.61998787238586063e-04
139  9.07547959855223735e-05
140  2.43156064396113917e-05
141  4.80880016661011740e-06
142 -2.25664507874687550e-05
143  2.04038597927265013e-05
144  8.24560615845905203e-06
145  5.11158475690800712e-06
146 -2.44818235634671776e-06
147  6.32733327566361719e-05
148 -6.36451173634185272e-04
149 -6.84208146821288314e-05
150  1.73626903391859414e-04
151 -6.22633778386991761e-06
152  3.84491557381313795e-05
153 -1.98746229584784863e-05
154 -2.87090109268480163e-06
155 -7.99378474502942556e-06
156  2.45897446013902142e-05
 Sym= A
 Ene= -1.14341488019316930e+01
 Spin= Alpha
 Occup=  1.00000000000000000e+00
  1  2.91397270931370819e-05
  2  2.81786419973671164e-05
  3  1.21212474518315614e-06
  4  8.06726483013182028e-07
  5 -2.25709130463874730e-06
  6 -1.25520228104415013e-05
  7  2.07001184156544403e-05
  8 -2.25936513837711885e-06
  9  2.50822583816463887e-05
 10 -3.92210249725427471e-05
 11  9.92247814348568426e-05
 12  5.39117904181246553e-05
 13  3.76805071451011335e-05
 14  2.31855711482814331e-07
 15 -2.11619110131278162e-05
 16  4.74652218248326321e-06
 17 -7.18673904240696684e-08
 18 -1.11210552126069649e-07
 19  1.36816061205612778e-03
 20 -1.95944480156836823e-04
 21  1.07873694628079546e-04
 22 -1.19815631685792024e-03
 23  1.00664749037993211e-06
 24 -2.94044482632834108e-05
 25 -1.84080152726371154e-05
 26  1.25454249192984297e-05
 27  1.63459585087100657e-05
 28  2.86040327449285034e-06
 29 -1.54152224613865357e-06
 30 -1.40123044114630209e-05
 31 -4.03938087859232416e-05
 32  1.14882764850447898e-04
 33  1.48005914968887280e-05
 34  4.20642390293277056e-05
 35 -1.16337037429878947e-04
 36  6.27067950086981478e-05
 37 -1.93739037409390848e-05
 38 -6.77871097857753939e-05
 39  5.52196386275880351e-05
 40 -3.71411036843216475e-06
 41  1.33671610773805468e-06
 42 -2.86881513158911834e-05
 43 -9.55298993221307724e-06
 44 -2.89887845232975061e-03
 45 -5.82961200621365987e-04
 46  1.09995396637072487e-05
 47 -7.09781619383639687e-04
 48 -5.17616032687363737e-06
 49 -1.85406678708699349e-05
 50  7.26714993481272152e-05
 51 -2.22223737290673379e-02
 52 -1.84516256533832149e-02
 53 -2.11015274845199766e-04
 54  5.73001083084215900e-06
 55  2.58699918475219259e-04
 56  1.07349576600124721e-04
 57  1.87344540137028407e-04
 58  2.44837335040346702e-06
 59 -1.48927405232715933e-04
 60  4.22401777736281989e-04
 61  9.25709031113129634e-05
 62  1.00809416114877381e-04
 63  5.02648003544194089e-04
 64 -1.13240264754201167e-04
 65  6.81897921101453730e-05
 66 -2.22426793443938781e-05
 67 -8.76067399288644506e-05
 68 -1.54320044891830568e-05
 69 -1.37973463018839309e-03
 70  1.44608901321492358e-04
 71 -1.33880439495560725e-04
 72  1.38448715800089710e-05
 73 -2.98472793019065276e-05
 74  5.60281983645988824e-05
 75  2.07632460771000314e-04
 76  5.62648911319569622e-01
 77  4.66071643569594740e-01
 78  1.40798203295992592e-04
 79 -2.22498413637853556e-06
 80  4.84387911597192937e-05
 81  5.33313484853357913e-03
 82  1.81733760647575935e-04
 83 -2.04876787134362039e-05
 84 -5.39533745706976989e-04
 85 -1.99537092610295192e-03
 86 -5.81669008581315716e-04
 87 -1.42391020611952072e-04
 88 -3.45266762901143582e-05
 89  9.72787897101191424e-05
 90 -3.08168240474796646e-04
 91 -3.67621138656032236e-05
 92  4.61541853704185853e-05
 93 -2.47045635121250775e-05
 94  2.34041721626368970e-03
 95  7.33271328903068050e-04
 96  2.85404313128620859e-04
 97 -2.53714713680356339e-04
 98  4.07324643965874635e-04
 99 -1.56234964775877293e-04
100  2.62959188145838320e-04
101  7.51194282335990952e-03
102  6.14799783915501944e-03
103 -5.17195798865903900e-05
104 -3.35910904079145776e-05
105 -1.16366808226890908e-04
106  3.75726624361397978e-04
107 -1.93512928951532600e-04
108 -6.61241971921497135e-05
109 -3.29826084012119225e-04
110  4.57268237646441466e-04
111 -3.25481488498087816e-05
112  9.65167562624267417e-05
113 -2.28039598122583800e-04
114  1.06434646844265343e-04
115  1.02062978611254396e-04
116  4.75461805360195329e-05
117 -2.84830725847256698e-05
118  2.58339719640519221e-05
119  9.64791531003851349e-04
120  3.32464209240655761e-04
121 -3.94001467963576795e-04
122  2.73019979567548383e-04
123 -6.24463166967134466e-06
124 -5.19803310196964086e-05
125 -1.01797484938181599e-04
126  2.22330483922673403e-06
127  4.87044522600230920e-05
128 -1.62337942293878696e-04
129 -2.80466055247930574e-04
130 -2.31068824544183600e-04
131  8.02840344683688388e-06
132 -7.56342940021666108e-06
133  2.15536154051525477e-06
134 -4.43937309215731581e-05
135 -1.62132836513241954e-05
136  2.88951825417793779e-05
137  1.08170556977048355e-05
138  1.18883718967448124e-04
139 -1.08646727034098888e-04
140 -1.79998053312696116e-04
141 -6.45950884295538278e-05
142 -1.54747767857343628e-05
143  1.14966882492431463e-05
144 -2.33063964337322272e-06
145  1.43406922477952751e-05
146 -1.85237669129269139e-05
147 -1.68776777607147630e-04
148  8.71506304192084255e-04
149  1.24666836651179084e-04
150 -3.10212230031221641e-04
151  1.92266485602062981e-05
152 -1.24918014623519937e-04
153 -2.84605357463926586e-05
154 -3.43182716325066402e-06
155  4.93974729555939678e-05
156  3.34600839222451313e-05
 Sym= A
 Ene= -1.14315720344432563e+01
 Spin= Alpha
 Occup=  1.00000000000000000e+00
  1 -2.14661359139004838e-03
  2 -1.85642998817301666e-03
  3 -5.64467421883131214e-05
  4 -2.29262055688754025e-05
  5  1.01999931141129516e-04
  6  2.65182723643527028e-04
  7 -2.02303614818599654e-04
  8 -8.03582582194217889e-05
  9  4.04475767109465419e-04
 10  1.15257732749914554e-03
 11 -5.56788025116668412e-04
 12 -1.06076770191749928e-04
 13  3.57806360125301009e-04
 14  1.09627781224037852e-04
 15 -1.72298122592301717e-04
 16 -5.19574935937990842e-05
 17  2.58936704705369975e-05
 18  3.28050826131028839e-05
 19  2.24853260400253519e-03
 20 -3.79463751025016396e-04
 21 -1.31289828754716772e-04
 22 -1.13073640632008277e-04
 23 -2.60253298698732837e-06
 24  2.86818924494627110e-05
 25  9.87286798030522639e-05
 26  7.88231487347234958e-06
 27  2.95258561321704385e-06
 28 -2.96679718385649194e-06
 29 -2.41794492747177934e-06
 30 -8.05332624425272536e-06
 31  2.30767798085127568e-05
 32  2.32707131950286140e-05
 33  1.36639198778748010e-05
 34  7.40209983513940062e-06
 35 -4.53148829276826630e-04
 36  2.61755466788265718e-04
 37  3.56824957828916981e-05
 38 -2.99097952772960638e-04
 39  2.08835607883565169e-05
 40  1.60360553964578137e-05
 41 -6.19440180594535147e-06
 42 -8.09111821788998835e-06
 43 -1.74592971813965636e-06
 44 -2.88837250691918561e-03
 45  2.55197929608377881e-04
 46  1.47063399811445572e-04
 47 -4.12785671270557842e-04
 48  9.79912131482745202e-06
 49 -6.81668977872508844e-05
 50 -2.79636318175016645e-05
 51  8.20232061205688253e-05
 52  7.04789027350615334e-05
 53 -4.49839603519775859e-06
 54 -2.74082132908800022e-06
 55  3.27403704726167912e-06
 56 -3.12931984480637409e-05
 57  1.85865880741059907e-05
 58  1.66489140715137965e-05
 59 -2.55986682367906440e-05
 60  3.63920577413190882e-04
 61  1.22732525386318452e-04
 62  7.97975836897550327e-06
 63  1.67600013795528421e-04
 64 -5.86973575130463676e-06
 65 -2.07935225948122831e-06
 66 -1.15643400414897632e-06
 67  1.59148774657893023e-05
 68  1.31870356632236638e-07
 69  1.79338631964952289e-03
 70  4.89045585453293610e-04
 71 -1.01189307726565387e-05
 72  2.45507496721284336e-04
 73 -4.08078009909476423e-06
 74  2.75991644661592121e-05
 75  3.21500584504292116e-05
 76  1.85124651990694450e-04
 77  1.54891295692666145e-04
 78 -4.39718605460133382e-07
 79 -1.86818313042148906e-06
 80 -2.59498430103726717e-06
 81 -3.01663280119276091e-05
 82 -2.07552397074428873e-05
 83  1.33631737872498909e-05
 84  3.04405189347578781e-06
 85 -1.08628322113685731e-04
 86  3.13876301299809864e-05
 87  1.30114009708859765e-05
 88  6.97154708564896956e-05
 89  9.27821266111051962e-06