[Molden Format]
[Atoms] (AU)
C    1    6         2.692996544949       0.121705921384      -0.214878868000
H    2    1         4.736250256935       0.348478914590      -0.219160987400
C    3    6         1.372372402584       0.196467266359      -2.381511097964
H    4    1         2.319246322883       0.513610742337      -4.178212053389
C    5    6        -1.372372402584      -0.196467266359      -2.381511097964
H    6    1        -2.319246322883      -0.513610742337      -4.178212053389
C    7    6        -2.692996544949      -0.121705921384      -0.214878868000
H    8    1        -4.736250256935      -0.348478914590      -0.219160987400
C    9    6        -1.382905736008       0.452434638477       2.258843117009
H   10    1        -1.442483131565       2.513277921239       2.573556405189
H   11    1        -2.403940257347      -0.396593231470       3.849140815080
C   12    6         1.382905736008      -0.452434638477       2.258843117009
H   13    1         1.442483131565      -2.513277921239       2.573556405189
H   14    1         2.403940257347       0.396593231470       3.849140815080
[GTO]
  1 0
 s    6  1.00
     4563.2400000000         0.0019666500
      682.0240000000         0.0152306000
      154.9730000000         0.0761269000
       44.4553000000         0.2608010000
       13.0290000000         0.6164620000
        1.8277300000         0.2210060000
 s    3  1.00
       20.9642000000         0.1146600000
        4.8033100000         0.9199990000
        1.4593300000        -0.0030306800
 p    3  1.00
       20.9642000000         0.0402487000
        4.8033100000         0.2375940000
        1.4593300000         0.8158540000
 s    1  1.00
        0.4834560000         1.0000000000
 p    1  1.00
        0.4834560000         1.0000000000
 s    1  1.00
        0.1455850000         1.0000000000
 p    1  1.00
        0.1455850000         1.0000000000
 d    1  1.00
        0.6260000000         1.0000000000
 s    1  1.00
        0.0438000000         1.0000000000
 p    1  1.00
        0.0438000000         1.0000000000

  2 0
 s    3  1.00
       33.8650000000         0.0254938000
        5.0947900000         0.1903730000
        1.1587900000         0.8521610000
 s    1  1.00
        0.3258400000         1.0000000000
 s    1  1.00
        0.1027410000         1.0000000000

  3 0
 s    6  1.00
     4563.2400000000         0.0019666500
      682.0240000000         0.0152306000
      154.9730000000         0.0761269000
       44.4553000000         0.2608010000
       13.0290000000         0.6164620000
        1.8277300000         0.2210060000
 s    3  1.00
       20.9642000000         0.1146600000
        4.8033100000         0.9199990000
        1.4593300000        -0.0030306800
 p    3  1.00
       20.9642000000         0.0402487000
        4.8033100000         0.2375940000
        1.4593300000         0.8158540000
 s    1  1.00
        0.4834560000         1.0000000000
 p    1  1.00
        0.4834560000         1.0000000000
 s    1  1.00
        0.1455850000         1.0000000000
 p    1  1.00
        0.1455850000         1.0000000000
 d    1  1.00
        0.6260000000         1.0000000000
 s    1  1.00
        0.0438000000         1.0000000000
 p    1  1.00
        0.0438000000         1.0000000000

  4 0
 s    3  1.00
       33.8650000000         0.0254938000
        5.0947900000         0.1903730000
        1.1587900000         0.8521610000
 s    1  1.00
        0.3258400000         1.0000000000
 s    1  1.00
        0.1027410000         1.0000000000

  5 0
 s    6  1.00
     4563.2400000000         0.0019666500
      682.0240000000         0.0152306000
      154.9730000000         0.0761269000
       44.4553000000         0.2608010000
       13.0290000000         0.6164620000
        1.8277300000         0.2210060000
 s    3  1.00
       20.9642000000         0.1146600000
        4.8033100000         0.9199990000
        1.4593300000        -0.0030306800
 p    3  1.00
       20.9642000000         0.0402487000
        4.8033100000         0.2375940000
        1.4593300000         0.8158540000
 s    1  1.00
        0.4834560000         1.0000000000
 p    1  1.00
        0.4834560000         1.0000000000
 s    1  1.00
        0.1455850000         1.0000000000
 p    1  1.00
        0.1455850000         1.0000000000
 d    1  1.00
        0.6260000000         1.0000000000
 s    1  1.00
        0.0438000000         1.0000000000
 p    1  1.00
        0.0438000000         1.0000000000

  6 0
 s    3  1.00
       33.8650000000         0.0254938000
        5.0947900000         0.1903730000
        1.1587900000         0.8521610000
 s    1  1.00
        0.3258400000         1.0000000000
 s    1  1.00
        0.1027410000         1.0000000000

  7 0
 s    6  1.00
     4563.2400000000         0.0019666500
      682.0240000000         0.0152306000
      154.9730000000         0.0761269000
       44.4553000000         0.2608010000
       13.0290000000         0.6164620000
        1.8277300000         0.2210060000
 s    3  1.00
       20.9642000000         0.1146600000
        4.8033100000         0.9199990000
        1.4593300000        -0.0030306800
 p    3  1.00
       20.9642000000         0.0402487000
        4.8033100000         0.2375940000
        1.4593300000         0.8158540000
 s    1  1.00
        0.4834560000         1.0000000000
 p    1  1.00
        0.4834560000         1.0000000000
 s    1  1.00
        0.1455850000         1.0000000000
 p    1  1.00
        0.1455850000         1.0000000000
 d    1  1.00
        0.6260000000         1.0000000000
 s    1  1.00
        0.0438000000         1.0000000000
 p    1  1.00
        0.0438000000         1.0000000000

  8 0
 s    3  1.00
       33.8650000000         0.0254938000
        5.0947900000         0.1903730000
        1.1587900000         0.8521610000
 s    1  1.00
        0.3258400000         1.0000000000
 s    1  1.00
        0.1027410000         1.0000000000

  9 0
 s    6  1.00
     4563.2400000000         0.0019666500
      682.0240000000         0.0152306000
      154.9730000000         0.0761269000
       44.4553000000         0.2608010000
       13.0290000000         0.6164620000
        1.8277300000         0.2210060000
 s    3  1.00
       20.9642000000         0.1146600000
        4.8033100000         0.9199990000
        1.4593300000        -0.0030306800
 p    3  1.00
       20.9642000000         0.0402487000
        4.8033100000         0.2375940000
        1.4593300000         0.8158540000
 s    1  1.00
        0.4834560000         1.0000000000
 p    1  1.00
        0.4834560000         1.0000000000
 s    1  1.00
        0.1455850000         1.0000000000
 p    1  1.00
        0.1455850000         1.0000000000
 d    1  1.00
        0.6260000000         1.0000000000
 s    1  1.00
        0.0438000000         1.0000000000
 p    1  1.00
        0.0438000000         1.0000000000

  10 0
 s    3  1.00
       33.8650000000         0.0254938000
        5.0947900000         0.1903730000
        1.1587900000         0.8521610000
 s    1  1.00
        0.3258400000         1.0000000000
 s    1  1.00
        0.1027410000         1.0000000000

  11 0
 s    3  1.00
       33.8650000000         0.0254938000
        5.0947900000         0.1903730000
        1.1587900000         0.8521610000
 s    1  1.00
        0.3258400000         1.0000000000
 s    1  1.00
        0.1027410000         1.0000000000

  12 0
 s    6  1.00
     4563.2400000000         0.0019666500
      682.0240000000         0.0152306000
      154.9730000000         0.0761269000
       44.4553000000         0.2608010000
       13.0290000000         0.6164620000
        1.8277300000         0.2210060000
 s    3  1.00
       20.9642000000         0.1146600000
        4.8033100000         0.9199990000
        1.4593300000        -0.0030306800
 p    3  1.00
       20.9642000000         0.0402487000
        4.8033100000         0.2375940000
        1.4593300000         0.8158540000
 s    1  1.00
        0.4834560000         1.0000000000
 p    1  1.00
        0.4834560000         1.0000000000
 s    1  1.00
        0.1455850000         1.0000000000
 p    1  1.00
        0.1455850000         1.0000000000
 d    1  1.00
        0.6260000000         1.0000000000
 s    1  1.00
        0.0438000000         1.0000000000
 p    1  1.00
        0.0438000000         1.0000000000

  13 0
 s    3  1.00
       33.8650000000         0.0254938000
        5.0947900000         0.1903730000
        1.1587900000         0.8521610000
 s    1  1.00
        0.3258400000         1.0000000000
 s    1  1.00
        0.1027410000         1.0000000000

  14 0
 s    3  1.00
       33.8650000000         0.0254938000
        5.0947900000         0.1903730000
        1.1587900000         0.8521610000
 s    1  1.00
        0.3258400000         1.0000000000
 s    1  1.00
        0.1027410000         1.0000000000

[5D]
[9G]

[MO]
 Sym= A
 Ene= -1.12321152040400225e+01
 Spin= Alpha
 Occup=  1.00000000000000000e+00
  1  3.78960249843243890e-01
  2  3.13827966533555713e-01
  3  6.75194162162574791e-05
  4 -2.60811542560617914e-06
  5  2.03181289713337201e-04
  6  2.94768787114371537e-03
  7 -2.04234720993587665e-04
  8  1.96250850964925807e-06
  9 -3.82247918181103741e-04
 10 -4.84044617763034726e-04
 11  2.09362486998599967e-04
 12  6.79735936187826503e-05
 13  1.55986438585778149e-04
 14  1.78542438849484624e-04
 15  2.01325531056255802e-04
 16 -3.24534807788248286e-05
 17  1.96701173609915885e-04
 18  1.96219104729986205e-05
 19  8.95214359135393920e-04
 20 -3.43957648515702118e-04
 21 -6.89005729091600211e-05
 22 -1.18037902259377023e-03
 23  2.78655448336604815e-04
 24 -1.12230346684278102e-04
 25  1.56227651952368468e-04
 26  8.99119590542589997e-02
 27  7.44208574839585746e-02
 28  2.59194374140912559e-05
 29 -7.25631853825257887e-06
 30  1.03349156819567724e-04
 31  8.83009698279596284e-04
 32 -2.84506528222742798e-05
 33 -2.47967271746048118e-06
 34  6.94194709856992182e-06
 35 -1.08729684291837328e-04
 36  1.28254543434533883e-05
 37 -4.59671664171644681e-05
 38  1.16035358802081317e-04
 39 -1.22491106661554396e-06
 40  1.33657177760688061e-05
 41  1.26855368961792944e-06
 42 -1.60755882097338005e-05
 43 -1.19321187568235552e-05
 44 -2.22494572442580698e-03
 45 -5.15220986840944509e-04
 46  6.60895573169648727e-05
 47 -2.59360429226624387e-04
 48  6.48598608162429229e-05
 49 -8.58178465678629896e-06
 50  1.69560027821656054e-04
 51  8.99119593183145827e-02
 52  7.44208577025737422e-02
 53 -2.59194376497159572e-05
 54  7.25631854635636331e-06
 55  1.03349157242888269e-04
 56  8.83009700696905041e-04
 57  2.84506525960881378e-05
 58  2.47967267433872078e-06
 59  6.94194699669546507e-06
 60 -1.08729686140312395e-04
 61 -1.28254543662358353e-05
 62  4.59671664315924953e-05
 63  1.16035358255561240e-04
 64 -1.22491104934123005e-06
 65 -1.33657179342432507e-05
 66 -1.26855371845368361e-06
 67 -1.60755883816570671e-05
 68 -1.19321188059431974e-05
 69 -2.22494571203778538e-03
 70  5.15220988768006426e-04
 71 -6.60895571994303099e-05
 72 -2.59360427374062338e-04
 73  6.48598610221889688e-05
 74 -8.58178477609154349e-06
 75  1.69560027818527399e-04
 76  3.78960251162548167e-01
 77  3.13827967626144066e-01
 78 -6.75194164473021276e-05
 79  2.60811543307667939e-06
 80  2.03181290423598722e-04
 81  2.94768788124298142e-03
 82  2.04234721671096441e-04
 83 -1.96250852528966342e-06
 84 -3.82247919551398677e-04
 85 -4.84044617988240865e-04
 86 -2.09362486780322260e-04
 87 -6.79735936773205146e-05
 88  1.55986438555974570e-04
 89  1.78542439425753176e-04
 90 -2.01325531812781666e-04
 91  3.24534808857942884e-05
 92  1.96701174278419332e-04
 93  1.96219105578033728e-05
 94  8.95214355972549151e-04
 95  3.43957648142749690e-04
 96  6.89005734308817928e-05
 97 -1.18037902192290193e-03
 98  2.78655449286359250e-04
 99 -1.12230346955830807e-04
100  1.56227652600995454e-04
101  8.33831640747754593e-02
102  6.89839742319681842e-02
103 -2.86808937850122760e-05
104 -2.56906109210504487e-05
105 -8.46498266106593790e-05
106  9.16559250945503151e-04
107 -5.91963734957169665e-05
108 -6.82315670091750766e-05
109 -2.08536599672524037e-04
110 -1.93658973200567559e-04
111  9.58640226415320706e-05
112  1.70909387377740331e-04
113  1.68563426601471703e-05
114  4.74783222685451307e-05
115  6.15741685600709206e-05
116  3.12766866291142465e-05
117 -7.40840416717672883e-06
118  3.65910373079762935e-06
119  1.50227893170580833e-03
120 -5.10851082552388528e-04
121 -4.81723520784968029e-04
122 -2.41419195902496604e-04
123  5.22726295211493376e-05
124 -4.65187042004900050e-05
125 -3.72746147087555797e-05
126  5.18939334214873333e-05
127  9.99297362875471788e-05
128 -1.31448575120811048e-04
129  8.33831638718012386e-02
130  6.89839740640443566e-02
131  2.86808936619342247e-05
132  2.56906108295531976e-05
133 -8.46498263132851932e-05
134  9.16559248521476569e-04
135  5.91963728095723914e-05
136  6.82315669897711239e-05
137 -2.08536598945346631e-04
138 -1.93658970930049991e-04
139 -9.58640232870419206e-05
140 -1.70909387170753722e-04
141  1.68563423455198924e-05
142  4.74783219321929485e-05
143 -6.15741682712506698e-05
144 -3.12766865521215334e-05
145 -7.40840398399154505e-06
146  3.65910355193607740e-06
147  1.50227891964667122e-03
148  5.10851086118127378e-04
149  4.81723519496271937e-04
150 -2.41419195958222346e-04
151  5.22726294720977816e-05
152 -4.65187045761216868e-05
153 -3.72746142897915558e-05
154  5.18939333178918767e-05
155  9.99297360137796386e-05
156 -1.31448574549239422e-04
 Sym= A
 Ene= -1.12320825820464734e+01
 Spin= Alpha
 Occup=  1.00000000000000000e+00
  1  3.85831489258852633e-01
  2  3.19525462869846344e-01
  3  6.70857419984277598e-05
  4 -2.98707201111508591e-06
  5  2.08969439251529719e-04
  6  2.95464702949126221e-03
  7 -1.96485787677820036e-04
  8  6.16081436637050256e-06
  9 -3.97585145443164994e-04
 10 -9.93650975342201970e-05
 11 -4.33658778835319236e-05
 12  7.40464685365176711e-06
 13  1.84718473915725235e-05
 14  1.69926255118389426e-04
 15  2.19275571692491500e-04
 16 -3.25309370098550573e-05
 17  1.95479019159018803e-04
 18  2.51880954750580896e-05
 19 -7.73995444817282704e-04
 20 -1.13602390105513364e-04
 21 -1.98215345494356471e-04
 22  6.25016516764580502e-04
 23  2.77067773798035503e-04
 24 -8.07215788321340540e-05
 25  1.99702804043787503e-04
 26  7.59133152583841148e-02
 27  6.28489174168001125e-02
 28  6.92741735960446584e-05
 29 -2.81309948340596949e-06
 30  1.25042832304808095e-04
 31  6.90233356861921798e-04
 32  6.34657281683270166e-05
 33  1.23610100836400445e-05
 34 -3.36257477192924853e-05
 35 -4.61711245507626610e-04
 36 -3.13433912448763585e-06
 37 -8.27116591421338742e-06
 38 -1.11757972208341685e-04
 39  4.82562368783729383e-06
 40  4.65889386698909355e-05
 41  8.25391750322325029e-06
 42 -4.93536149460590808e-05
 43 -1.41177501530556861e-05
 44  2.30590457590147202e-03
 45  2.57770469059186342e-04
 46  4.41833044454784102e-05
 47  7.76301620472003061e-04
 48  5.88073774798337012e-05
 49 -3.10039596607488311e-05
 50  3.02651360755303322e-05
 51 -7.59133149567309679e-02
 52 -6.28489171671224173e-02
 53  6.92741735022716737e-05
 54 -2.81309945892503256e-06
 55 -1.25042831948168816e-04
 56 -6.90233353902072852e-04
 57  6.34657282723999220e-05
 58  1.23610100908573785e-05
 59  3.36257477312550910e-05
 60  4.61711245287233191e-04
 61 -3.13433921781836137e-06
 62 -8.27116574428594047e-06
 63  1.11757972693879592e-04
 64 -4.82562368783149166e-06
 65  4.65889386246870707e-05
 66  8.25391749834482333e-06
 67  4.93536148882080518e-05
 68  1.41177501123463967e-05
 69 -2.30590458387516968e-03
 70  2.57770471243467202e-04
 71  4.41833042477246367e-05
 72 -7.76301621297409645e-04
 73 -5.88073772645107093e-05
 74  3.10039596364380436e-05
 75 -3.02651354745245521e-05
 76 -3.85831487967616682e-01
 77 -3.19525461800547750e-01
 78  6.70857417644329837e-05
 79 -2.98707200106890415e-06
 80 -2.08969438552237803e-04
 81 -2.95464701943517300e-03
 82 -1.96485786962544975e-04
 83  6.16081436143129844e-06
 84  3.97585144147912244e-04
 85  9.93650958278657925e-05
 86 -4.33658787095567258e-05
 87  7.40464661249067465e-06
 88 -1.84718467503503882e-05
 89 -1.69926254505385420e-04
 90  2.19275571017175957e-04
 91 -3.25309368980932748e-05
 92 -1.95479018486859697e-04
 93 -2.51880954083957022e-05
 94  7.73995445025185843e-04
 95 -1.13602389515559836e-04
 96 -1.98215345430128144e-04
 97 -6.25016521924405652e-04
 98 -2.77067772846844337e-04
 99  8.07215784261817369e-05
100 -1.99702803517951130e-04
101 -6.34547622000678629e-02
102 -5.25003059296127311e-02
103  3.56258369528910174e-05
104  2.73064668228722512e-05
105  8.93082164564361418e-05
106 -7.40166677861422051e-04
107  2.09634183751521017e-04
108  1.38706866383499445e-06
109  2.04391330967901443e-04
110  6.70171152909818492e-04
111  1.38631273554006061e-04
112 -4.20646890435062080e-05
113 -7.18627835253451882e-05
114 -9.81987347340664859e-05
115 -8.26043023676482506e-05
116 -2.26018705523591321e-05
117  5.47556903814922020e-05
118 -5.17467931001903823e-05
119 -8.92636895673803283e-04
120 -6.41109180893117601e-04
121  1.57543166594055072e-04
122 -1.96290137481815760e-04
123 -1.89598928319475642e-05
124 -9.73760112669697764e-05
125  1.86489977717342922e-05
126 -3.54287251557497182e-05
127 -6.46672958898298456e-05
128  4.56521338031602250e-05
129  6.34547625056906955e-02
130  5.25003061824707851e-02
131  3.56258370479438756e-05
132  2.73064669115066834e-05
133 -8.93082167498357779e-05
134  7.40166681165055134e-04
135  2.09634183935412764e-04
136  1.38706890569354612e-06
137 -2.04391331671967968e-04
138 -6.70171153654455375e-04
139  1.38631273201456556e-04
140 -4.20646897004533203e-05
141  7.18627835790704552e-05
142  9.81987348930053202e-05
143 -8.26043025718655360e-05
144 -2.26018706575081928e-05
145 -5.47556904089276466e-05
146  5.17467931104291810e-05
147  8.92636904152584111e-04
148 -6.41109178726139740e-04
149  1.57543168518900988e-04
150  1.96290135921346938e-04
151  1.89598930207515063e-05
152  9.73760111177900763e-05
153 -1.86489980637060680e-05
154  3.54287253414929643e-05
155  6.46672962722754128e-05
156 -4.56521343714360320e-05
 Sym= A
 Ene= -1.12305981756122470e+01
 Spin= Alpha
 Occup=  1.00000000000000000e+00
  1  7.72101818155851022e-02
  2  6.39863877928893987e-02
  3  4.80265187523599198e-05
  4  1.48408281315545219e-05
  5 -4.06327872549803218e-05
  6  4.46573788661022199e-04
  7  6.05973324513114846e-05
  8  5.49778020867879711e-05
  9 -3.19748312738760414e-04
 10 -7.32257191477069165e-04
 11  3.79846948106416600e-04
 12  8.21004808884227274e-05
 13 -2.60663691070291928e-04
 14 -3.83970098103059677e-05
 15  1.46325827188484666e-04
 16  2.89592943253019388e-05
 17  1.46442637843550657e-05
 18 -9.97740065318981681e-06
 19  7.54704733034627820e-05
 20 -1.42505669823702867e-05
 21  5.78836539492804162e-05
 22  3.54300188152273322e-04
 23  5.88359771057596470e-05
 24 -4.27652371507929283e-05
 25 -7.72484773593558907e-05
 26  3.56578532022559791e-02
 27  2.95190525870987243e-02
 28 -9.35702872351621455e-06
 29 -1.10582535136019993e-06
 30  1.42874736247653146e-05
 31  3.37399816112355917e-04
 32 -6.88209306086259247e-06
 33 -9.14554900197057325e-07
 34  2.72327193011703500e-05
 35 -1.40473879331007390e-05
 36 -7.04942713641230597e-05
 37 -1.42896336354393904e-05
 38  6.38269045647077193e-05
 39 -7.34757887366471978e-06
 40  1.68933343779692367e-06
 41  2.00665448781315709e-06
 42  1.40931012169405030e-06
 43 -7.18372989588999537e-07
 44  6.47922480225411298e-04
 45  1.00753329110788768e-04
 46 -9.93617375405408742e-05
 47  1.30867293225966788e-04
 48  2.52849520046688504e-05
 49  9.68716259933309543e-06
 50  1.31687969769534923e-05
 51  3.56578531984389976e-02
 52  2.95190525839390330e-02
 53  9.35702872981439748e-06
 54  1.10582535177473828e-06
 55  1.42874736196999915e-05
 56  3.37399816113734426e-04
 57  6.88209306043394383e-06
 58  9.14554896079719954e-07
 59  2.72327192852899323e-05
 60 -1.40473882893672317e-05
 61  7.04942714105565656e-05
 62  1.42896336332017445e-05
 63  6.38269045042489199e-05
 64 -7.34757888498487043e-06
 65 -1.68933342396204973e-06
 66 -2.00665449122396734e-06
 67  1.40931011239804603e-06
 68 -7.18372991326384496e-07
 69  6.47922499744881431e-04
 70 -1.00753326033999212e-04
 71  9.93617380537150670e-05
 72  1.30867295779459904e-04
 73  2.52849519886398259e-05
 74  9.68716268973536843e-06
 75  1.31687967040782370e-05
 76  7.72101817923733919e-02
 77  6.39863877736682324e-02
 78 -4.80265187499310359e-05
 79 -1.48408281319803898e-05
 80 -4.06327872567326093e-05
 81  4.46573788475406082e-04
 82 -6.05973324388719791e-05
 83 -5.49778020802346262e-05
 84 -3.19748312744836771e-04
 85 -7.32257191100955419e-04
 86 -3.79846948045666367e-04
 87 -8.21004808907404670e-05
 88 -2.60663691081698982e-04
 89 -3.83970098124221949e-05
 90 -1.46325827182546356e-04
 91 -2.89592943252703174e-05
 92  1.46442637799673249e-05
 93 -9.97740064923966341e-06
 94  7.54704559945956738e-05
 95  1.42505636229395128e-05
 96 -5.78836545075160638e-05
 97  3.54300186935311136e-04
 98  5.88359770992867296e-05
 99 -4.27652372107799236e-05
100 -7.72484772211179860e-05
101 -3.89177561824691542e-01
102 -3.22227339286155878e-01
103 -6.60394447468382436e-05
104  5.35652730759854891e-05
105  8.69788370402293717e-05
106 -3.21577067620191582e-03
107 -2.42307032999047623e-04
108 -9.50166132506520482e-06
109 -1.58880894623756040e-04
110  1.39053359730531719e-03
111 -7.46106252745542799e-05
112  8.35966264588704054e-05
113 -2.71054377074401878e-04
114  8.02876268119429520e-05
115  8.34998864420066116e-05
116  4.42294914865059392e-05
117 -1.47368502122165013e-05
118  1.95317589928900828e-05
119 -5.44600243580153345e-04
120  1.02276011343323587e-04
121  2.01998351829016062e-04
122  2.08239139979164527e-04
123 -2.24529203952877974e-04
124 -1.55315341727773574e-04
125 -3.28130085164286204e-04
126 -2.39133495102919128e-04
127 -4.76456053663538152e-05
128 -2.33193283163484524e-04
129 -3.89177561835843955e-01
130 -3.22227339295393100e-01
131  6.60394447353880115e-05
132 -5.35652730731361719e-05
133  8.69788370257928132e-05
134 -3.21577067622912886e-03
135  2.42307033042775475e-04
136  9.50166131863766809e-06
137 -1.58880894583375906e-04
138  1.39053359721906739e-03
139  7.46106251391989028e-05
140 -8.35966264194555364e-05
141 -2.71054377387057541e-04
142  8.02876268184572181e-05
143 -8.34998864442006844e-05
144 -4.42294914984881215e-05
145 -1.47368502197255551e-05
146  1.95317589925498534e-05
147 -5.44600263762076860e-04
148 -1.02276009631844850e-04
149 -2.01998353244519735e-04
150  2.08239142894968925e-04
151 -2.24529203940514952e-04
152 -1.55315341847206412e-04
153 -3.28130084446152427e-04
154 -2.39133495099040232e-04
155 -4.76456054295490663e-05
156 -2.33193282366879852e-04
 Sym= A
 Ene= -1.12300285297150744e+01
 Spin= Alpha
 Occup=  1.00000000000000000e+00
  1  5.99484428479628087e-02
  2  4.96956654702906050e-02
  3  4.84256488582917335e-05
  4  2.01155293411103527e-05
  5 -5.54361680748239043e-05
  6  2.53854738020168225e-04
  7  9.72776320680341261e-05
  8  3.45580828266193866e-05
  9 -2.80419591937095761e-04
 10 -7.75146616405402627e-04
 11  2.61172192618937835e-04
 12  7.13148493951026630e-05
 13 -2.36813991086772218e-04
 14 -3.70701439632891141e-05
 15  1.11448858129267373e-04
 16  1.77644721001545030e-05
 17  2.32101955918037325e-05
 18 -1.86889379684290565e-05
 19 -2.89264381193088263e-03
 20  4.66824776597469615e-04
 21  4.17157116085051976e-05
 22 -8.71816426763820737e-05
 23  4.31588585390979237e-05
 24 -2.93234248252823771e-06
 25  4.30412058380764455e-05
 26  2.41115626051418147e-02
 27  1.99693175864318236e-02
 28  9.30669149134719957e-06
 29  3.67370370416587061e-06
 30  1.76205165390551241e-05
 31  1.67961424513863163e-04
 32  2.29122455840215197e-05
 33 -1.51826395474070642e-05
 34 -6.12418084460799784e-06
 35  3.01133546472491694e-04
 36 -2.21973997001643066e-04
 37 -1.77100252479616311e-05
 38  1.84023127056020364e-04
 39 -1.88033558276246150e-06
 40  1.45613811547106921e-05
 41  7.88740146173787430e-06
 42  8.65760233195938340e-06
 43 -2.83886365095875670e-06
 44  3.64510591410818242e-03
 45 -4.51625857601184607e-04
 46 -8.87175574514313268e-05
 47  5.75372147191626502e-04
 48  1.17741586719409507e-05
 49  3.92139266932748428e-05
 50  1.49258344301552942e-05
 51 -2.41115626007978416e-02
 52 -1.99693175828350028e-02
 53  9.30669149474929724e-06
 54  3.67370370391127623e-06
 55 -1.76205165382791030e-05
 56 -1.67961424477037829e-04
 57  2.29122455733698466e-05
 58 -1.51826395449913280e-05
 59  6.12418084929824882e-06
 60 -3.01133546519864606e-04
 61 -2.21973996948867926e-04
 62 -1.77100252478638835e-05
 63 -1.84023127054805028e-04
 64  1.88033558394605283e-06
 65  1.45613811512129745e-05
 66  7.88740146175348681e-06
 67 -8.65760232967499653e-06
 68  2.83886365036608944e-06
 69 -3.64510591145530494e-03
 70 -4.51625858434715551e-04
 71 -8.87175574311158853e-05
 72 -5.75372146830262134e-04
 73 -1.17741586692836203e-05
 74 -3.92139266797790872e-05
 75 -1.49258344485901278e-05
 76 -5.99484428380284567e-02
 77 -4.96956654620673427e-02
 78  4.84256488599505087e-05
 79  2.01155293410466152e-05
 80  5.54361680800550917e-05
 81 -2.53854737933338159e-04
 82  9.72776320744770789e-05
 83  3.45580828327214594e-05
 84  2.80419591945698635e-04
 85  7.75146616422671148e-04
 86  2.61172192600327071e-04
 87  7.13148493787475410e-05
 88  2.36813991034183480e-04
 89  3.70701439683297190e-05
 90  1.11448858126274541e-04
 91  1.77644721012094588e-05
 92 -2.32101955893546316e-05
 93  1.86889379671435654e-05
 94  2.89264381343663302e-03
 95  4.66824776902629213e-04
 96  4.17157118089083682e-05
 97  8.71816447250486621e-05
 98 -4.31588585319269969e-05
 99  2.93234248172788814e-06
100 -4.30412058775959738e-05
101  3.93148599210056793e-01
102  3.25598677579187645e-01
103 -8.01652166610234616e-05
104  2.18795161283191963e-06
105 -9.09942017171196143e-05
106  2.92323562046612829e-03
107 -2.54113783558607847e-04
108  1.28063529975162670e-04
109  1.56292610746802701e-04
110 -2.52551334802385676e-03
111 -3.51683729618430113e-04
112  1.82836792030958745e-04
113  1.63953689047983812e-04
114  4.23124429030406494e-05
115 -5.43586407457958076e-05
116 -3.76775540683971184e-05
117 -1.30690699170811806e-04
118  8.11680024785999866e-05
119 -2.87202730166967284e-03
120 -1.43160431327083836e-04
121  1.74812365861136410e-04
122  2.96410487542318410e-04
123  2.34041627485316735e-04
124  1.66213990821687435e-04
125  3.76445214202518615e-04
126  2.31382707582786663e-04
127  1.54363870643232015e-04
128  4.53252230674494822e-04
129 -3.93148599192625070e-01
130 -3.25598677564751027e-01
131 -8.01652166666665713e-05
132  2.18795161792895436e-06
133  9.09942017084809760e-05
134 -2.92323562031567528e-03
135 -2.54113783548796902e-04
136  1.28063529968719880e-04
137 -1.56292610732780037e-04
138  2.52551334800664440e-03
139 -3.51683729655157679e-04
140  1.82836792069324757e-04
141 -1.63953689114236073e-04
142 -4.23124429052454287e-05
143 -5.43586407452369217e-05
144 -3.76775540675968214e-05
145  1.30690699171036453e-04
146 -8.11680024796629655e-05
147  2.87202729725234045e-03
148 -1.43160432082667827e-04
149  1.74812365392242389e-04
150 -2.96410486666776366e-04
151 -2.34041627468078165e-04
152 -1.66213990855452120e-04
153 -3.76445213913667099e-04
154 -2.31382707566619013e-04
155 -1.54363870674111665e-04
156 -4.53252230366318215e-04
 Sym= A
 Ene= -1.12285317474982058e+01
 Spin= Alpha
 Occup=  1.00000000000000000e+00
  1  9.54794215638461313e-02
  2  7.91125335845876132e-02
  3  1.17213371494399686e-04
  4 -2.00203978783905058e-06
  5  2.04432046322827488e-04
  6  5.36528381628617363e-04
  7 -7.64497847446684979e-05
  8 -4.35087840361298656e-06
  9 -1.74870885858925126e-04
 10  1.14856139704105258e-04
 11  1.01066494673204780e-04
 12  1.72883238760349265e-05
 13 -3.48051777940245214e-05
 14  9.57893920736357788e-05
 15  5.04936794133125218e-05
 16 -2.67405939141884911e-05
 17  1.19060451953117484e-04
 18  2.99931598548989668e-05
 19  4.15467509137828778e-04
 20 -2.57550968090959941e-05
 21 -2.28756491281169951e-05
 22  4.30408693995065750e-04
 23  6.88925409288464240e-05
 24 -4.07655278462652865e-05
 25 -4.10384226120975818e-05
 26 -3.86373628955192006e-01
 27 -3.19945628438916885e-01
 28  3.31804771059811916e-04
 29 -2.22813782764100150e-06
 30  2.23707993911921615e-04
 31 -3.19135074147255688e-03
 32 -7.98070211766956409e-05
 33  4.97471287764937375e-05
 34 -3.66348602385558003e-04
 35  3.25143569853838068e-04
 36 -5.38765587124128730e-05
 37 -2.99456846397680744e-05
 38  8.26298618486027362e-05
 39 -1.68028493853687814e-04
 40 -1.68783593236715218e-04
 41  5.69740584317130207e-05
 42 -2.49646612486685571e-04
 43 -4.27157025460688262e-05
 44  1.93325858983425239e-04
 45  2.48561384781476546e-04
 46  6.12515307444492851e-05
 47 -1.47838090527746367e-04
 48 -2.91933481784097506e-04
 49  9.55034282428265051e-05
 50 -1.80072701474503057e-04
 51 -3.86373629056038059e-01
 52 -3.19945628522463998e-01
 53 -3.31804771094064681e-04
 54  2.22813783601003472e-06
 55  2.23707993976056917e-04
 56 -3.19135074216960000e-03
 57  7.98070213389383916e-05
 58 -4.97471287744235416e-05
 59 -3.66348602510433970e-04
 60  3.25143570075042904e-04
 61  5.38765587999685613e-05
 62  2.99456846835527524e-05
 63  8.26298622014460876e-05
 64 -1.68028493958794655e-04
 65  1.68783593287697900e-04
 66 -5.69740584446518962e-05
 67 -2.49646612523115197e-04
 68 -4.27157025506786438e-05
 69  1.93325873886917470e-04
 70 -2.48561382548966091e-04
 71 -6.12515303095030844e-05
 72 -1.47838088930808182e-04
 73 -2.91933481880187417e-04
 74  9.55034284376742238e-05
 75 -1.80072701759776543e-04
 76  9.54794215875176544e-02
 77  7.91125336041976490e-02
 78 -1.17213371528613420e-04
 79  2.00203978995900549e-06
 80  2.04432046383215760e-04
 81  5.36528381793405576e-04
 82  7.64497847847948745e-05
 83  4.35087840032578891e-06
 84 -1.74870885940796512e-04
 85  1.14856139366963350e-04
 86 -1.01066494922500224e-04
 87 -1.72883239063141995e-05
 88 -3.48051778132560385e-05
 89  9.57893920964940268e-05