[Molden Format]
[Atoms] (AU)
C    1    6         2.688203947216       0.126267316038      -0.211284584910
H    2    1         4.728095907479       0.359456870713      -0.218011119477
C    3    6         1.369782617967       0.204435981782      -2.374855666231
H    4    1         2.318345438850       0.530982748944      -4.165937681460
C    5    6        -1.369782617967      -0.204435981782      -2.374855666231
H    6    1        -2.318345438850      -0.530982748944      -4.165937681460
C    7    6        -2.688203947216      -0.126267316038      -0.211284584910
H    8    1        -4.728095907290      -0.359456870902      -0.218011119477
C    9    6        -1.377448045575       0.458746757807       2.255586404767
H   10    1        -1.428727068278       2.518961490447       2.552818698465
H   11    1        -2.401900037590      -0.368832778254       3.849461186775
C   12    6         1.377448045575      -0.458746757807       2.255586404767
H   13    1         1.428727068278      -2.518961490069       2.552818698465
H   14    1         2.401900037401       0.368832778065       3.849461186397
[GTO]
  1 0
 s    6  1.00
     4563.2400000000         0.0019666500
      682.0240000000         0.0152306000
      154.9730000000         0.0761269000
       44.4553000000         0.2608010000
       13.0290000000         0.6164620000
        1.8277300000         0.2210060000
 s    3  1.00
       20.9642000000         0.1146600000
        4.8033100000         0.9199990000
        1.4593300000        -0.0030306800
 p    3  1.00
       20.9642000000         0.0402487000
        4.8033100000         0.2375940000
        1.4593300000         0.8158540000
 s    1  1.00
        0.4834560000         1.0000000000
 p    1  1.00
        0.4834560000         1.0000000000
 s    1  1.00
        0.1455850000         1.0000000000
 p    1  1.00
        0.1455850000         1.0000000000
 d    1  1.00
        0.6260000000         1.0000000000
 s    1  1.00
        0.0438000000         1.0000000000
 p    1  1.00
        0.0438000000         1.0000000000

  2 0
 s    3  1.00
       33.8650000000         0.0254938000
        5.0947900000         0.1903730000
        1.1587900000         0.8521610000
 s    1  1.00
        0.3258400000         1.0000000000
 s    1  1.00
        0.1027410000         1.0000000000

  3 0
 s    6  1.00
     4563.2400000000         0.0019666500
      682.0240000000         0.0152306000
      154.9730000000         0.0761269000
       44.4553000000         0.2608010000
       13.0290000000         0.6164620000
        1.8277300000         0.2210060000
 s    3  1.00
       20.9642000000         0.1146600000
        4.8033100000         0.9199990000
        1.4593300000        -0.0030306800
 p    3  1.00
       20.9642000000         0.0402487000
        4.8033100000         0.2375940000
        1.4593300000         0.8158540000
 s    1  1.00
        0.4834560000         1.0000000000
 p    1  1.00
        0.4834560000         1.0000000000
 s    1  1.00
        0.1455850000         1.0000000000
 p    1  1.00
        0.1455850000         1.0000000000
 d    1  1.00
        0.6260000000         1.0000000000
 s    1  1.00
        0.0438000000         1.0000000000
 p    1  1.00
        0.0438000000         1.0000000000

  4 0
 s    3  1.00
       33.8650000000         0.0254938000
        5.0947900000         0.1903730000
        1.1587900000         0.8521610000
 s    1  1.00
        0.3258400000         1.0000000000
 s    1  1.00
        0.1027410000         1.0000000000

  5 0
 s    6  1.00
     4563.2400000000         0.0019666500
      682.0240000000         0.0152306000
      154.9730000000         0.0761269000
       44.4553000000         0.2608010000
       13.0290000000         0.6164620000
        1.8277300000         0.2210060000
 s    3  1.00
       20.9642000000         0.1146600000
        4.8033100000         0.9199990000
        1.4593300000        -0.0030306800
 p    3  1.00
       20.9642000000         0.0402487000
        4.8033100000         0.2375940000
        1.4593300000         0.8158540000
 s    1  1.00
        0.4834560000         1.0000000000
 p    1  1.00
        0.4834560000         1.0000000000
 s    1  1.00
        0.1455850000         1.0000000000
 p    1  1.00
        0.1455850000         1.0000000000
 d    1  1.00
        0.6260000000         1.0000000000
 s    1  1.00
        0.0438000000         1.0000000000
 p    1  1.00
        0.0438000000         1.0000000000

  6 0
 s    3  1.00
       33.8650000000         0.0254938000
        5.0947900000         0.1903730000
        1.1587900000         0.8521610000
 s    1  1.00
        0.3258400000         1.0000000000
 s    1  1.00
        0.1027410000         1.0000000000

  7 0
 s    6  1.00
     4563.2400000000         0.0019666500
      682.0240000000         0.0152306000
      154.9730000000         0.0761269000
       44.4553000000         0.2608010000
       13.0290000000         0.6164620000
        1.8277300000         0.2210060000
 s    3  1.00
       20.9642000000         0.1146600000
        4.8033100000         0.9199990000
        1.4593300000        -0.0030306800
 p    3  1.00
       20.9642000000         0.0402487000
        4.8033100000         0.2375940000
        1.4593300000         0.8158540000
 s    1  1.00
        0.4834560000         1.0000000000
 p    1  1.00
        0.4834560000         1.0000000000
 s    1  1.00
        0.1455850000         1.0000000000
 p    1  1.00
        0.1455850000         1.0000000000
 d    1  1.00
        0.6260000000         1.0000000000
 s    1  1.00
        0.0438000000         1.0000000000
 p    1  1.00
        0.0438000000         1.0000000000

  8 0
 s    3  1.00
       33.8650000000         0.0254938000
        5.0947900000         0.1903730000
        1.1587900000         0.8521610000
 s    1  1.00
        0.3258400000         1.0000000000
 s    1  1.00
        0.1027410000         1.0000000000

  9 0
 s    6  1.00
     4563.2400000000         0.0019666500
      682.0240000000         0.0152306000
      154.9730000000         0.0761269000
       44.4553000000         0.2608010000
       13.0290000000         0.6164620000
        1.8277300000         0.2210060000
 s    3  1.00
       20.9642000000         0.1146600000
        4.8033100000         0.9199990000
        1.4593300000        -0.0030306800
 p    3  1.00
       20.9642000000         0.0402487000
        4.8033100000         0.2375940000
        1.4593300000         0.8158540000
 s    1  1.00
        0.4834560000         1.0000000000
 p    1  1.00
        0.4834560000         1.0000000000
 s    1  1.00
        0.1455850000         1.0000000000
 p    1  1.00
        0.1455850000         1.0000000000
 d    1  1.00
        0.6260000000         1.0000000000
 s    1  1.00
        0.0438000000         1.0000000000
 p    1  1.00
        0.0438000000         1.0000000000

  10 0
 s    3  1.00
       33.8650000000         0.0254938000
        5.0947900000         0.1903730000
        1.1587900000         0.8521610000
 s    1  1.00
        0.3258400000         1.0000000000
 s    1  1.00
        0.1027410000         1.0000000000

  11 0
 s    3  1.00
       33.8650000000         0.0254938000
        5.0947900000         0.1903730000
        1.1587900000         0.8521610000
 s    1  1.00
        0.3258400000         1.0000000000
 s    1  1.00
        0.1027410000         1.0000000000

  12 0
 s    6  1.00
     4563.2400000000         0.0019666500
      682.0240000000         0.0152306000
      154.9730000000         0.0761269000
       44.4553000000         0.2608010000
       13.0290000000         0.6164620000
        1.8277300000         0.2210060000
 s    3  1.00
       20.9642000000         0.1146600000
        4.8033100000         0.9199990000
        1.4593300000        -0.0030306800
 p    3  1.00
       20.9642000000         0.0402487000
        4.8033100000         0.2375940000
        1.4593300000         0.8158540000
 s    1  1.00
        0.4834560000         1.0000000000
 p    1  1.00
        0.4834560000         1.0000000000
 s    1  1.00
        0.1455850000         1.0000000000
 p    1  1.00
        0.1455850000         1.0000000000
 d    1  1.00
        0.6260000000         1.0000000000
 s    1  1.00
        0.0438000000         1.0000000000
 p    1  1.00
        0.0438000000         1.0000000000

  13 0
 s    3  1.00
       33.8650000000         0.0254938000
        5.0947900000         0.1903730000
        1.1587900000         0.8521610000
 s    1  1.00
        0.3258400000         1.0000000000
 s    1  1.00
        0.1027410000         1.0000000000

  14 0
 s    3  1.00
       33.8650000000         0.0254938000
        5.0947900000         0.1903730000
        1.1587900000         0.8521610000
 s    1  1.00
        0.3258400000         1.0000000000
 s    1  1.00
        0.1027410000         1.0000000000

[5D]
[9G]

[MO]
 Sym= A
 Ene= -1.25314630017893620e+01
 Spin= Alpha
 Occup=  1.00000000000000000e+00
  1 -6.22470432330650358e-01
  2 -4.20583098469948236e-01
  3  1.62804347324033497e-03
  4  9.61448492859136154e-05
  5  1.25130469211404529e-03
  6  4.90579227663586748e-02
  7 -9.10881656489453441e-03
  8 -3.28562565113041448e-04
  9 -8.46447074648883253e-03
 10 -4.09407914703307091e-02
 11  1.02243073409297985e-02
 12  1.90503203424731687e-03
 13  9.92302006814116139e-04
 14  4.67797901513351475e-03
 15  3.87154086946109224e-03
 16 -6.05115944232723188e-04
 17  1.24464457621669094e-03
 18 -8.51488840492106323e-05
 19  5.16144797364117280e-02
 20 -1.30419318351272118e-02
 21 -4.28121193415687776e-03
 22 -5.65434156089953711e-03
 23  2.34027460472129164e-04
 24 -1.92940717745246544e-03
 25  3.69603152473362874e-03
 26 -2.87899522912171289e-04
 27  1.34832760753522099e-03
 28  1.62687856823839493e-03
 29 -2.69416239670018210e-05
 30  1.97212242041625409e-03
 31 -5.09889248310751043e-03
 32 -9.85973952484762994e-03
 33  2.29113533634090827e-04
 34 -1.27324229082642817e-02
 35  4.04062414698315702e-03
 36  9.76560982908855017e-04
 37 -1.33351911917538616e-03
 38  8.91446294571363214e-03
 39 -5.34884179064624120e-03
 40 -6.50676492698354977e-03
 41  2.62443584205502612e-04
 42 -7.77449946333034657e-04
 43  6.14223743513030661e-04
 44 -2.79545882794026979e-02
 45 -5.50139529260761789e-03
 46  1.65897814580904883e-03
 47 -2.04339185854251299e-03
 48 -8.96495487868386506e-04
 49  6.30975743327334888e-04
 50  4.83741723086682056e-03
 51 -4.18181970578064723e-05
 52  2.36359773354108161e-04
 53  6.44634197237263680e-04
 54  8.84240589675436902e-05
 55 -2.44176088776099510e-04
 56 -1.12970673803495136e-03
 57 -4.08151362651949616e-03
 58 -4.91591427975819487e-04
 59  1.15182780061793850e-03
 60  4.59085434360984219e-04
 61  1.59186364718427926e-03
 62  6.09850880670716146e-04
 63 -2.83574133230614237e-04
 64  1.87964113317963272e-03
 65 -5.43857021415150273e-04
 66 -9.24591525543555991e-05
 67 -1.02650822242322977e-03
 68 -3.52104218749093765e-04
 69 -4.62981253981187765e-02
 70  7.35191373193326558e-03
 71 -1.46605678518734183e-04
 72 -9.62299286684312541e-03
 73 -2.57427835212955451e-04
 74 -2.74466833833621139e-04
 75  2.28347550803348603e-03
 76 -3.81178887259017710e-05
 77  2.05212821609327014e-04
 78  6.89204673736329703e-05
 79  5.01113429044227979e-06
 80 -1.08402401530504304e-04
 81 -1.10677386095771194e-03
 82 -1.07493052360819324e-03
 83  8.04263323008136549e-06
 84  1.26759875780566066e-03
 85 -7.48968893426152642e-04
 86 -1.20279166440775422e-03
 87 -8.01703329755485469e-04
 88 -1.28230613234702530e-04
 89 -3.04132561609550241e-04
 90  6.71227713574253982e-04
 91 -1.60940380919903924e-04
 92  6.17723473852738577e-05
 93  1.78553887541425292e-05
 94  1.84772812079500130e-02
 95  3.02269298817491386e-03
 96 -1.94373481337930328e-03
 97 -1.77492413362422344e-02
 98 -1.10975398390984468e-04
 99 -4.73422216102603783e-04
100  3.92250321067321784e-04
101 -2.99036796642241711e-05
102  1.85014134176270491e-04
103  1.94368131746166324e-04
104  9.90937030705274169e-06
105  4.64618739667079108e-05
106 -1.22451155139096908e-03
107 -1.10739816609107481e-03
108  1.02261391168916366e-04
109  1.25395775717972104e-04
110  1.70582881589710785e-03
111  1.82622006901071048e-03
112  2.63351858750779768e-03
113 -1.24627869253640840e-03
114  3.53572456712086900e-04
115 -3.28389638978155492e-04
116 -1.24385812020872983e-04
117 -2.53092148471388513e-04
118  1.99774582794834827e-04
119 -3.32419952820897429e-03
120 -1.34413513625349975e-02
121 -1.46541259577837230e-03
122 -5.07862115657996792e-03
123  3.00828269286101989e-04
124 -1.97108881303950743e-03
125 -2.60360674642309906e-04
126 -2.70791884861911326e-04
127  5.94009508348548963e-04
128  1.38873623755370024e-03
129 -4.61638906058326037e-05
130  3.29742196928007648e-04
131  7.11946972159120217e-04
132  2.75760953407506483e-04
133 -1.17402040640615570e-03
134 -3.40152633534896993e-04
135 -2.05850507317559576e-03
136 -7.22422871660453902e-04
137  3.25794436956938294e-03
138  6.86524190612203527e-03
139  7.15633081109934874e-04
140 -1.05586525730978092e-03
141 -4.79080510885077776e-03
142 -1.98656428294695939e-03
143  2.12273803621913955e-03
144  9.79706277637361345e-04
145 -6.84415666878221440e-04
146 -7.35916584633692565e-04
147  8.93398612945556919e-03
148 -5.79854653298849613e-03
149  5.57964047014439333e-03
150  5.90571146837142163e-03
151 -5.15184555663386850e-04
152 -1.06884305499534474e-03
153 -2.72212052630588881e-04
154 -4.80896730258801208e-04
155  3.51855240204067775e-04
156 -8.52969410119709974e-04
 Sym= A
 Ene= -1.04690698733655587e+01
 Spin= Alpha
 Occup=  1.00000000000000000e+00
  1  2.33760587622344648e-04
  2 -2.32763988275558293e-04
  3  4.12170426505193853e-04
  4 -4.51216837181259224e-05
  5  8.17275826639532986e-04
  6  1.25358582341594782e-03
  7 -2.01064086834890294e-03
  8  2.08847274401530620e-04
  9 -3.94911767571247581e-03
 10 -1.89754137847437986e-03
 11  2.79629631034528352e-03
 12  1.27203502819466533e-04
 13  9.67236469524505546e-04
 14  1.29329139890121741e-03
 15  1.94617471703811850e-03
 16 -5.04448773768873226e-05
 17  4.76498587776730395e-04
 18 -1.15554892803092305e-04
 19  1.52810834504935964e-02
 20 -1.97021082138905835e-03
 21  1.10285841623322295e-04
 22 -1.07830445288043929e-03
 23  2.67060463417476547e-04
 24 -2.10331418869982335e-04
 25 -1.64749510248784039e-03
 26 -5.63007080432576967e-01
 27 -4.63420076359051969e-01
 28 -3.63388081538585696e-04
 29 -7.82727982160615385e-05
 30 -9.76295679456110288e-05
 31 -1.80705079605945201e-02
 32 -2.33654092031598701e-04
 33  3.63650753469909162e-04
 34 -3.11934355029621626e-03
 35  1.44388732843044355e-02
 36 -2.33325946023052802e-03
 37 -6.15876362409183186e-04
 38  3.40353628087793460e-03
 39 -7.75721605327449565e-04
 40 -1.51540289158984915e-03
 41  1.09262595938319388e-04
 42 -1.19461315996442167e-03
 43 -1.74780271680784915e-04
 44 -2.53931934294247992e-02
 45  2.98720309350406985e-03
 46  9.75235481205264081e-04
 47 -5.51417010154268278e-03
 48 -3.05688730598825936e-04
 49  1.00262561221777240e-03
 50 -1.24475094181766659e-03
 51 -9.92687061474036491e-04
 52 -9.15145130578040806e-04
 53 -6.45353043517530277e-04
 54 -7.86362094115902657e-05
 55  9.02626037638657233e-05
 56 -1.30061518729183828e-05
 57  2.17229369787845083e-03
 58  2.26418228000717061e-04
 59 -5.99148555773711860e-04
 60 -4.33035770735047416e-03
 61 -2.75683756769189636e-03
 62 -4.99940737472728000e-04
 63 -2.38097745408284754e-03
 64 -8.54832934863127155e-04
 65  1.85037549783603202e-04
 66 -9.10034523082630103e-05
 67  9.63353275794025547e-04
 68  3.63435726797670014e-04
 69  1.89064550927259926e-02
 70  1.46339257344233831e-03
 71 -5.02323641690659046e-05
 72  1.97851381633121432e-03
 73  1.80514527321870197e-04
 74 -3.26957360895712790e-04
 75 -1.59113752534277239e-03
 76  4.47288246610760761e-05
 77 -5.27654474419374987e-05
 78 -4.78479964971241609e-05
 79 -1.11109532360420943e-05
 80  9.96596581851338524e-05
 81  4.02536093768554766e-04
 82  5.52136916884721305e-04
 83  3.73621975428104302e-05
 84 -8.13327137917308515e-04
 85  3.01406015599477032e-03
 86  1.38097183995876892e-03
 87  1.67904590408810570e-04
 88  4.87407811569201901e-04
 89  1.55336428193785989e-04
 90 -4.30811727308668551e-04
 91 -4.04474218789216565e-05
 92 -2.04633877889604589e-05
 93 -4.15309607000142415e-05
 94 -4.31626045060093128e-03
 95 -1.03223201311520131e-03
 96  4.09419403276304391e-04
 97  2.78892873894308248e-03
 98  5.75674630564342201e-05
 99  1.97560715593427422e-04
100 -3.06423620906152560e-04
101  4.39504154263415923e-05
102 -3.60466599833448036e-05
103 -3.55996331333287676e-06
104  1.75702177172132284e-05
105  1.29673697709556420e-05
106  5.21947941685854656e-04
107  7.50040230693748225e-05
108 -1.00704557294038530e-04
109 -1.63058616259049348e-04
110 -2.90521166609115705e-03
111 -4.55437848795967428e-04
112  1.36282393273120470e-04
113  8.02349419688834194e-04
114 -1.59713570290669384e-05
115  8.94564089463447971e-05
116  1.04329601673575901e-05
117  5.45978223974188594e-06
118 -2.63726802756927659e-05
119  4.41397923570230419e-03
120  2.91576557438810334e-03
121  1.12809915860501571e-04
122 -2.68448807978372802e-05
123 -6.86817661060261402e-05
124  5.27641916238406569e-04
125 -3.64019152046516693e-04
126  1.54699216217772470e-05
127  1.88286759259761907e-04
128 -2.10701589621468445e-04
129  7.50866491178462991e-05
130 -2.16677059386590385e-05
131 -6.93335218395436584e-05
132 -9.90777424927087214e-06
133  1.12446096456783221e-04
134  2.51918738200022062e-04
135  3.20519933467103648e-04
136  9.99297347897175136e-05
137 -6.66180411620719004e-04
138  1.89828716226037009e-03
139 -6.52496370915610531e-04
140  6.76288168668157715e-04
141 -2.47291692081230067e-04
142  2.46852122778583945e-04
143 -3.36676799883681968e-04
144 -1.43312733167310025e-04
145 -5.33235444982700643e-05
146  1.20378396359673854e-05
147 -9.04607265705155948e-03
148  1.16139690191960398e-03
149 -1.30140382929439121e-03
150  6.34097932437671587e-04
151 -3.53188499647777763e-05
152  1.67125737450755853e-04
153  4.44988499913758775e-04
154  1.10124800866290621e-04
155 -2.00457902283790511e-04
156  9.30204020276658512e-05
 Sym= A
 Ene= -1.04055614176397579e+01
 Spin= Alpha
 Occup=  1.00000000000000000e+00
  1 -5.52991966084009670e-05
  2  3.65972557882466928e-06
  3 -1.93425358497887299e-04
  4 -1.06889501068060700e-04
  5  5.96864999180144015e-04
  6 -5.44742822045510150e-05
  7  1.90828132097456193e-04
  8  2.66443174767501032e-04
  9 -1.89410470969351053e-03
 10  7.24866997818279443e-03
 11 -4.11210789742589081e-03
 12 -9.13946258722734108e-04
 13  3.43150669953087807e-03
 14 -3.41643625494558690e-04
 15  1.03739238349933195e-03
 16  2.78395698978105071e-04
 17  5.40789463244544668e-05
 18 -1.08992970856706039e-04
 19  1.86918770266213362e-02
 20 -3.70076784524928570e-03
 21 -8.39312594122542115e-04
 22 -2.22414659676128078e-03
 23 -1.70923451891371670e-04
 24  2.52561953965901279e-04
 25  1.20170181600332145e-03
 26  5.50627328843438657e-05
 27  1.46454211244923047e-04
 28  9.05183002010302566e-05
 29 -2.10233614740832896e-05
 30  9.99982066409535215e-05
 31 -4.41147612536386491e-04
 32 -6.06928539432012690e-04
 33  1.26173838454257995e-04
 34 -9.75633886029640554e-04
 35 -3.46776322406280651e-03
 36  2.45762982080359026e-03
 37  2.73972104074959356e-04
 38 -1.87280462443910117e-03
 39 -2.95050525717784507e-04
 40 -3.90890549000923518e-04
 41 -3.87952547601806878e-05
 42  7.53647506026020649e-05
 43  1.06393115388903764e-04
 44 -2.45750440024570492e-02
 45  1.30766953899302037e-03
 46  1.09757492311154926e-03
 47 -3.63411233710551288e-03
 48 -2.20278086822350247e-05
 49 -6.15204290533506704e-04
 50  8.34519843625502095e-05
 51 -1.42658154346445145e-04
 52 -4.02312473964471071e-05
 53  4.31549462219532219e-05
 54 -2.52420466984639027e-05
 55  3.50917780698493470e-05
 56 -5.72655310024858038e-04
 57 -2.46779805131777522e-04
 58  8.28423148491462568e-05
 59 -2.74144067461517746e-04
 60  3.65192976893172726e-03
 61  1.60125358641834701e-03
 62  2.46093560839328500e-04
 63  2.00107443228956508e-03
 64  5.88331067255591601e-05
 65  9.34899495061543940e-07
 66  4.52590815898308962e-06
 67  3.72952369294176825e-05
 68 -3.36883024155477972e-05
 69  1.04857721929141473e-02
 70  3.83258760256136076e-03
 71 -1.11463988165404863e-05
 72  1.43697533063780842e-03
 73 -8.88525392970334314e-05
 74  3.41196963030477619e-04
 75  7.66387600384920375e-04
 76 -3.81479878537521050e-04
 77 -2.48023999822444448e-04
 78  3.01368100260166677e-05
 79  1.00292667563270851e-05
 80  8.77532056737734072e-05
 81 -3.67142146651773505e-04
 82 -3.16508069122320673e-04
 83 -3.51815666972965388e-05
 84 -4.22021805153990047e-04
 85 -1.88261995184425867e-03
 86 -3.93782125740050172e-04
 87 -1.15688480165776017e-04
 88  4.53678048496578609e-04
 89 -1.66773769374430319e-04
 90 -1.33265058492017930e-04
 91 -1.63606858501233424e-06
 92  1.36307039212566280e-04
 93 -1.62133709480645526e-04
 94 -1.20981144341459033e-02
 95 -1.99196789325634723e-03
 96 -4.76440728245867675e-05
 97 -4.18653617961681386e-03
 98 -6.80400419148237634e-05
 99 -1.27137690981838956e-05
100  5.17421397203700383e-04
101  1.45481359659993818e-03
102  1.29131063702774148e-03
103  4.80889425439937860e-04
104 -1.63374825732741309e-04
105  6.19973530036327771e-05
106 -2.73452340823287761e-04
107 -1.13174179549763512e-03
108  3.83070685609578716e-04
109 -2.79179251037769461e-04
110  6.07237434508497119e-03
111  2.76618711915721819e-03
112 -1.34467025679866812e-03
113  2.15180769719386492e-04
114  4.90841366667883771e-04
115  9.49099583465737653e-05
116  6.11956250410110000e-05
117 -6.58173276022018571e-04
118  5.21396478797133702e-04
119  1.71852559398710594e-02
120 -9.39605109804940138e-04
121 -2.31156305532799781e-03
122 -2.80474264627088906e-03
123 -1.74694776511039203e-04
124 -3.01513541068027511e-04
125  3.63873789824784098e-04
126 -8.88958629743933428e-05
127 -5.53081419839107245e-04
128 -5.70032042944908853e-04
129  5.63003500719624683e-01
130  4.63571503443417299e-01
131  4.12598133185673559e-04
132  1.35776797230679797e-04
133 -6.24619636141567568e-04
134  1.77728260682724799e-02
135 -6.52093836913877358e-04
136  4.00474673461323927e-04
137 -5.65843592991097100e-04
138 -2.37007997528824559e-02
139  1.27198381375182674e-03
140 -7.99210300411699816e-04
141  2.48353587930909888e-03
142  2.16470949664800207e-05
143 -2.86203838535485308e-04
144 -6.05658864215217083e-05
145  3.17485790748711627e-04
146 -8.51967471866550929e-05
147 -1.21287222924242981e-02
148  1.34153413186286624e-03
149  7.02371472371758599e-04
150  1.01196093506380363e-03
151 -1.43938650543165212e-04
152  1.16617560447273964e-03
153  3.98820476131639227e-03
154 -1.09800028571068606e-04
155  8.37438681127734754e-04
156  3.62398241185593909e-03
 Sym= A
 Ene= -1.03975673236645001e+01
 Spin= Alpha
 Occup=  1.00000000000000000e+00
  1  1.18856828540523088e-05
  2 -6.17446571705524159e-05
  3  2.23202377794204546e-05
  4  1.56847271995567882e-06
  5  3.79021195650726294e-05
  6  3.52534001149506864e-04
  7 -3.57477212551208330e-04
  8  2.11213326433953827e-06
  9 -4.28844897621301401e-04
 10  4.88155855892793099e-04
 11 -5.39954594541195397e-04
 12 -2.84681626069182398e-04
 13  5.17559767782418253e-06
 14  1.00286237001005811e-04
 15  2.31107275955472484e-04
 16 -5.08174718339754870e-05
 17 -1.92124180199964372e-05
 18 -6.41774051292949497e-06
 19 -6.74495846192300214e-03
 20  1.07270083072028401e-03
 21 -6.93449483440681429e-04
 22  6.40340162087305476e-03
 23  3.36779362994464384e-05
 24  1.75956136409819889e-04
 25 -1.05562664898628387e-04
 26 -4.28120761593131015e-06
 27 -8.67853322985023845e-05
 28  2.18318004787593993e-04
 29  2.95118210972074984e-05
 30  8.27992627399327068e-05
 31  3.62247807979249590e-04
 32 -1.35696119542376642e-03
 33 -1.63694027496790714e-04
 34 -3.97252811324789264e-04
 35 -3.98921464019777840e-04
 36  5.70802547540686430e-04
 37  2.24490728456870332e-04
 38 -7.66679950348030640e-05
 39 -6.29403135598305755e-04
 40 -1.68830411735713633e-04
 41 -2.49987181318505556e-05
 42  3.55760431366850438e-04
 43  1.24649705615127748e-04
 44  1.66745715815825625e-02
 45  2.68780524788479009e-03
 46 -3.48059231489806690e-05
 47  3.54751526410785212e-03
 48  8.72153540659329423e-05
 49  7.07841298795989024e-05
 50 -8.27713536563851721e-04
 51 -1.07900612956200823e-02
 52 -9.33019519978443672e-03
 53  5.90450822429965127e-04
 54 -1.37487254298042103e-05
 55 -7.52543137142611877e-04
 56  1.15240030028131548e-03
 57 -3.20909656824898372e-03
 58  7.19803657204708873e-05
 59  4.11819874874801931e-03
 60 -5.68793298948584909e-04
 61  2.99008877200754330e-04
 62 -4.32506940401900864e-04
 63 -2.70496613782073621e-03
 64  1.73714361246336715e-03
 65 -2.06110437021558672e-03
 66  9.16174646637654461e-05
 67  2.67107146272759627e-04
 68 -1.89282889425166636e-04
 69  8.10648003787996750e-03
 70 -1.66112569467325496e-03
 71  5.70758837928597587e-04
 72  2.50281660776385145e-04
 73  2.75864582569631113e-04
 74 -1.89238400886131684e-04
 75 -1.61323779057047801e-03
 76 -5.62788377080571056e-01
 77 -4.63340545587842656e-01
 78  3.24871613842135935e-04
 79 -1.77786329873398930e-05
 80 -3.70914995323627032e-04
 81 -1.84298352174312834e-02
 82 -2.87044765405725924e-03
 83 -6.40090703807318719e-05
 84  2.95874342855157553e-03
 85  1.32932186632732166e-02
 86  3.19260941905974123e-03
 87  6.35035009550955127e-04
 88 -2.07466295568800401e-04
 89 -1.63580137993531334e-03
 90  1.43498668987145734e-03
 91 -2.32320615112911803e-04
 92 -6.59392098272636195e-04
 93 -1.06778648248944399e-05
 94 -1.57975325477924325e-02
 95 -4.35455202341197313e-03
 96 -1.49932417596733794e-03
 97  1.73868714510106099e-03
 98 -2.81500166273030946e-04
 99  8.39476643018473561e-04
100 -1.53242276606723057e-03
101 -2.27148237838319632e-03
102 -1.93927778237600848e-03
103  2.40639583452368380e-04
104  9.94149266237269886e-05
105  4.04612746722690674e-04
106 -1.09550249050478868e-04
107 -5.60727057731784970e-04
108 -2.01330822610824753e-04
109 -8.73752824135718212e-04
110 -2.05053965724720727e-03
111  2.55171231816001454e-04
112 -4.19435884068697330e-04
113  1.52543196896224860e-03
114  5.65634221001633957e-04
115  6.11755404373966454e-04
116  2.84768001473100418e-04
117  2.39361324266240677e-04
118  2.19626357288793496e-04
119 -3.81363306218841965e-03
120 -1.96303200734757868e-03
121  2.02686070359713033e-03
122 -1.88110316524076754e-03
123  1.65173833539428519e-04
124  3.49358322324100866e-04
125  1.42142473010826981e-04
126  1.48856362905065048e-04
127 -1.64584749643334477e-04
128  3.67372570117501472e-04
129 -3.65991859031721814e-04
130 -3.64052079550979753e-04
131  5.73832585700290992e-05
132  7.34305426165223151e-06
133 -1.31358091072872142e-05
134  3.98870444050051891e-04
135 -3.33892221308152543e-04
136  1.44196596996660142e-05
137 -4.62022120222375650e-05
138 -7.46055055071654727e-04
139  6.56951969718371593e-04
140  8.98888868507415539e-04
141  4.53553701008264497e-04
142 -1.00000361743648983e-04
143 -1.04956720222293659e-04
144 -3.50107278310108182e-05
145  7.66040882839816610e-05
146 -5.02225926299838926e-05
147  1.02254221562515205e-03
148 -4.77668975500987816e-03
149 -5.60018918082466404e-04
150  1.77536877648742019e-03
151 -1.02495872790231066e-04
152  6.91511047109768791e-04
153  9.71043151101597509e-05
154  8.32836718225420916e-05
155 -1.97619688394989564e-04
156 -4.38927364443989453e-04
 Sym= A
 Ene= -1.03772731182321465e+01
 Spin= Alpha
 Occup=  1.00000000000000000e+00
  1  1.25248205613911593e-05
  2 -7.03872337253733132e-05
  3  4.69510007605749441e-05
  4  1.31994281012533319e-05
  5  9.44344513340000780e-05
  6  3.53054530959968156e-04
  7 -5.30558100016606526e-04
  8 -4.83093425681616032e-05
  9 -7.62981044791248000e-04
 10  3.46896065486905188e-03
 11 -1.62961885326911768e-03
 12 -1.82048316504414016e-04
 13  4.09427949686890402e-04
 14  1.44877670117079925e-04
 15  4.01539195889682153e-04
 16  3.79726058177483924e-05
 17 -2.23804681023881664e-05
 18 -3.62089662421898661e-05
 19 -6.03302695641199944e-03
 20  1.23403763889444267e-03
 21 -4.60974238539014721e-04
 22  3.11709272751348925e-03
 23  5.20184348340756704e-05
 24  2.19513387200155765e-04
 25 -2.25068457250264731e-04
 26  1.05335944186091138e-03
 27  7.89419868170579127e-04
 28  6.30709042360539903e-04
 29  7.70530731475188672e-05
 30  8.07710065899567328e-05
 31  2.64044487661054379e-06
 32 -1.96369208756451549e-03
 33 -1.99371203141701295e-04
 34 -5.48985784860501883e-04
 35 -4.75934907672614840e-03
 36  2.75749809432526173e-03
 37  5.23416466454000497e-04
 38 -2.77499019295638066e-03
 39 -7.89848955107678280e-04
 40 -1.69044372761204448e-04
 41  9.28928655447701520e-05
 42  8.98290259553385126e-04
 43  3.44347459821718680e-04
 44  1.98872746910166501e-02
 45 -1.07198485263327128e-03
 46  9.45404685412752220e-05
 47  2.55603709494174819e-03
 48  1.79503937522111477e-04
 49 -3.89160882145554460e-04
 50 -1.65969578053125561e-03
 51 -5.62745168420086594e-01
 52 -4.63242478012770076e-01
 53 -4.66675736521168273e-04
 54 -1.64194829003713963e-05
 55  4.38303036211043734e-04
 56 -1.89550488967469462e-02
 57  1.03282215868137021e-03
 58 -3.20551407677754539e-04
 59 -3.88644924081685229e-03
 60  1.50885288756801503e-02
 61  2.05219701503070711e-03
 62  6.07070707487597180e-04
 63  3.93591642181790116e-03
 64 -9.64826336822783431e-04
 65  1.78101038399664110e-03
 66 -1.03425724775058580e-04
 67 -1.13671646547926285e-03
 68 -1.23840708401858800e-04
 69 -2.69947079525634515e-02
 70 -2.26679582405452237e-03
 71 -9.12939890689563101e-04
 72 -6.21177071555861944e-03
 73 -3.36904191862335818e-04
 74  1.03198437696653601e-03
 75 -1.16243510123344813e-03
 76  1.10174878949069067e-02
 77  8.61366658433094026e-03
 78 -4.11791526498459578e-04
 79  4.94191308716978128e-05
 80  8.32673688291159014e-04
 81  1.86779065363853612e-03
 82  2.28142077822030432e-03
 83 -2.36090164764074127e-04
 84 -4.45940475468093248e-03
 85 -2.30594284636619377e-03
 86 -2.89498735773913163e-03
 87 -8.58873963102778072e-05
 88  1.21197274692038445e-03
 89  1.46527457885240278e-03