[Molden Format]
[Atoms] (AU)
C    1    6         2.629487081914       0.093476835175      -0.212912561290
H    2    1         4.611654542927       0.302615517583      -0.233944234755
C    3    6         1.374259263318       0.191322606791      -2.346684474049
H    4    1         2.346381966313       0.518776997128      -4.119567358050
C    5    6        -1.374258746478      -0.191322258704      -2.346683658821
H    6    1        -2.346380663536      -0.518778527239      -4.119566463454
C    7    6        -2.629487000845      -0.093475165602      -0.212912062969
H    8    1        -4.611654185013      -0.302615163448      -0.233943342048
C    9    6        -1.373192188454       0.455443034848       2.246402049504
H   10    1        -1.488313025050       2.498821411122       2.579052207052
H   11    1        -2.419542110438      -0.446949438545       3.775431299036
C   12    6         1.373191124160      -0.455443107792       2.246401431375
H   13    1         1.488312603264      -2.498821715368       2.579050874984
H   14    1         2.419541338107       0.446948974051       3.775430768968
[GTO]
  1 0
 s    6  1.00
     4563.2400000000         0.0019666500
      682.0240000000         0.0152306000
      154.9730000000         0.0761269000
       44.4553000000         0.2608010000
       13.0290000000         0.6164620000
        1.8277300000         0.2210060000
 s    3  1.00
       20.9642000000         0.1146600000
        4.8033100000         0.9199990000
        1.4593300000        -0.0030306800
 p    3  1.00
       20.9642000000         0.0402487000
        4.8033100000         0.2375940000
        1.4593300000         0.8158540000
 s    1  1.00
        0.4834560000         1.0000000000
 p    1  1.00
        0.4834560000         1.0000000000
 s    1  1.00
        0.1455850000         1.0000000000
 p    1  1.00
        0.1455850000         1.0000000000
 d    1  1.00
        0.6260000000         1.0000000000
 s    1  1.00
        0.0438000000         1.0000000000
 p    1  1.00
        0.0438000000         1.0000000000

  2 0
 s    3  1.00
       33.8650000000         0.0254938000
        5.0947900000         0.1903730000
        1.1587900000         0.8521610000
 s    1  1.00
        0.3258400000         1.0000000000
 s    1  1.00
        0.1027410000         1.0000000000

  3 0
 s    6  1.00
     4563.2400000000         0.0019666500
      682.0240000000         0.0152306000
      154.9730000000         0.0761269000
       44.4553000000         0.2608010000
       13.0290000000         0.6164620000
        1.8277300000         0.2210060000
 s    3  1.00
       20.9642000000         0.1146600000
        4.8033100000         0.9199990000
        1.4593300000        -0.0030306800
 p    3  1.00
       20.9642000000         0.0402487000
        4.8033100000         0.2375940000
        1.4593300000         0.8158540000
 s    1  1.00
        0.4834560000         1.0000000000
 p    1  1.00
        0.4834560000         1.0000000000
 s    1  1.00
        0.1455850000         1.0000000000
 p    1  1.00
        0.1455850000         1.0000000000
 d    1  1.00
        0.6260000000         1.0000000000
 s    1  1.00
        0.0438000000         1.0000000000
 p    1  1.00
        0.0438000000         1.0000000000

  4 0
 s    3  1.00
       33.8650000000         0.0254938000
        5.0947900000         0.1903730000
        1.1587900000         0.8521610000
 s    1  1.00
        0.3258400000         1.0000000000
 s    1  1.00
        0.1027410000         1.0000000000

  5 0
 s    6  1.00
     4563.2400000000         0.0019666500
      682.0240000000         0.0152306000
      154.9730000000         0.0761269000
       44.4553000000         0.2608010000
       13.0290000000         0.6164620000
        1.8277300000         0.2210060000
 s    3  1.00
       20.9642000000         0.1146600000
        4.8033100000         0.9199990000
        1.4593300000        -0.0030306800
 p    3  1.00
       20.9642000000         0.0402487000
        4.8033100000         0.2375940000
        1.4593300000         0.8158540000
 s    1  1.00
        0.4834560000         1.0000000000
 p    1  1.00
        0.4834560000         1.0000000000
 s    1  1.00
        0.1455850000         1.0000000000
 p    1  1.00
        0.1455850000         1.0000000000
 d    1  1.00
        0.6260000000         1.0000000000
 s    1  1.00
        0.0438000000         1.0000000000
 p    1  1.00
        0.0438000000         1.0000000000

  6 0
 s    3  1.00
       33.8650000000         0.0254938000
        5.0947900000         0.1903730000
        1.1587900000         0.8521610000
 s    1  1.00
        0.3258400000         1.0000000000
 s    1  1.00
        0.1027410000         1.0000000000

  7 0
 s    6  1.00
     4563.2400000000         0.0019666500
      682.0240000000         0.0152306000
      154.9730000000         0.0761269000
       44.4553000000         0.2608010000
       13.0290000000         0.6164620000
        1.8277300000         0.2210060000
 s    3  1.00
       20.9642000000         0.1146600000
        4.8033100000         0.9199990000
        1.4593300000        -0.0030306800
 p    3  1.00
       20.9642000000         0.0402487000
        4.8033100000         0.2375940000
        1.4593300000         0.8158540000
 s    1  1.00
        0.4834560000         1.0000000000
 p    1  1.00
        0.4834560000         1.0000000000
 s    1  1.00
        0.1455850000         1.0000000000
 p    1  1.00
        0.1455850000         1.0000000000
 d    1  1.00
        0.6260000000         1.0000000000
 s    1  1.00
        0.0438000000         1.0000000000
 p    1  1.00
        0.0438000000         1.0000000000

  8 0
 s    3  1.00
       33.8650000000         0.0254938000
        5.0947900000         0.1903730000
        1.1587900000         0.8521610000
 s    1  1.00
        0.3258400000         1.0000000000
 s    1  1.00
        0.1027410000         1.0000000000

  9 0
 s    6  1.00
     4563.2400000000         0.0019666500
      682.0240000000         0.0152306000
      154.9730000000         0.0761269000
       44.4553000000         0.2608010000
       13.0290000000         0.6164620000
        1.8277300000         0.2210060000
 s    3  1.00
       20.9642000000         0.1146600000
        4.8033100000         0.9199990000
        1.4593300000        -0.0030306800
 p    3  1.00
       20.9642000000         0.0402487000
        4.8033100000         0.2375940000
        1.4593300000         0.8158540000
 s    1  1.00
        0.4834560000         1.0000000000
 p    1  1.00
        0.4834560000         1.0000000000
 s    1  1.00
        0.1455850000         1.0000000000
 p    1  1.00
        0.1455850000         1.0000000000
 d    1  1.00
        0.6260000000         1.0000000000
 s    1  1.00
        0.0438000000         1.0000000000
 p    1  1.00
        0.0438000000         1.0000000000

  10 0
 s    3  1.00
       33.8650000000         0.0254938000
        5.0947900000         0.1903730000
        1.1587900000         0.8521610000
 s    1  1.00
        0.3258400000         1.0000000000
 s    1  1.00
        0.1027410000         1.0000000000

  11 0
 s    3  1.00
       33.8650000000         0.0254938000
        5.0947900000         0.1903730000
        1.1587900000         0.8521610000
 s    1  1.00
        0.3258400000         1.0000000000
 s    1  1.00
        0.1027410000         1.0000000000

  12 0
 s    6  1.00
     4563.2400000000         0.0019666500
      682.0240000000         0.0152306000
      154.9730000000         0.0761269000
       44.4553000000         0.2608010000
       13.0290000000         0.6164620000
        1.8277300000         0.2210060000
 s    3  1.00
       20.9642000000         0.1146600000
        4.8033100000         0.9199990000
        1.4593300000        -0.0030306800
 p    3  1.00
       20.9642000000         0.0402487000
        4.8033100000         0.2375940000
        1.4593300000         0.8158540000
 s    1  1.00
        0.4834560000         1.0000000000
 p    1  1.00
        0.4834560000         1.0000000000
 s    1  1.00
        0.1455850000         1.0000000000
 p    1  1.00
        0.1455850000         1.0000000000
 d    1  1.00
        0.6260000000         1.0000000000
 s    1  1.00
        0.0438000000         1.0000000000
 p    1  1.00
        0.0438000000         1.0000000000

  13 0
 s    3  1.00
       33.8650000000         0.0254938000
        5.0947900000         0.1903730000
        1.1587900000         0.8521610000
 s    1  1.00
        0.3258400000         1.0000000000
 s    1  1.00
        0.1027410000         1.0000000000

  14 0
 s    3  1.00
       33.8650000000         0.0254938000
        5.0947900000         0.1903730000
        1.1587900000         0.8521610000
 s    1  1.00
        0.3258400000         1.0000000000
 s    1  1.00
        0.1027410000         1.0000000000

[5D]
[9G]

[MO]
 Sym= A
 Ene= -1.25305625644039367e+01
 Spin= Alpha
 Occup=  1.00000000000000000e+00
  1  6.22334229442636500e-01
  2  4.20878795107918868e-01
  3 -1.61724243470805326e-03
  4 -5.80156187424704872e-05
  5 -1.33807437870827228e-03
  6 -5.04978704166735431e-02
  7  1.00744799828957812e-02
  8  1.28541740516795129e-04
  9  1.02024587137530525e-02
 10  3.75321149224186745e-02
 11 -9.26781939545944823e-03
 12 -1.58749437723891269e-03
 13 -1.17220427420420517e-03
 14 -5.58429654978274698e-03
 15 -4.40090640660547715e-03
 16  7.99441361561520976e-04
 17 -1.37146669361654398e-03
 18  1.39719584469734636e-04
 19 -4.65419006475588579e-02
 20  1.18189476748430094e-02
 21  3.79276871459001018e-03
 22  5.78123496972688788e-03
 23 -2.12610774384668300e-04
 24  1.94500650337122837e-03
 25 -3.82893212976245702e-03
 26  3.49012825841135764e-04
 27 -1.56030543948329275e-03
 28 -1.61568415025809442e-03
 29  4.59756640182854584e-05
 30 -1.97182446368356643e-03
 31  6.67194455015963396e-03
 32  1.09777124058215089e-02
 33 -4.43814597078186701e-04
 34  1.47856150484555349e-02
 35 -1.53334262688044776e-03
 36 -1.17767320771636707e-03
 37  1.20600650618526008e-03
 38 -7.92295750095233994e-03
 39  6.05002116965257068e-03
 40  7.05442413648056134e-03
 41 -4.21471381787813959e-04
 42  8.51066823218036856e-04
 43 -6.84699315903055544e-04
 44  2.17952582226498895e-02
 45  6.16641941885497525e-03
 46 -1.38106008562864863e-03
 47  1.28481509839820595e-03
 48  9.38674519106738299e-04
 49 -5.17973453306667508e-04
 50 -4.65787819134892440e-03
 51  4.09381956603362945e-05
 52 -2.29908772907638439e-04
 53 -6.58484015424228605e-04
 54 -8.35916007449960188e-05
 55  2.75699247967354133e-04
 56  1.07050825094357209e-03
 57  4.27331630991251762e-03
 58  4.59221853838278347e-04
 59 -1.41216138281786453e-03
 60 -1.04962721009605516e-03
 61 -2.06178173275777107e-03
 62 -6.25152328453626080e-04
 63 -1.36103427682608859e-04
 64 -2.00197842211627744e-03
 65  5.36294043263979949e-04
 66  7.37892657862667420e-05
 67  1.08047641106688162e-03
 68  3.73377723897171793e-04
 69  5.06867299106924518e-02
 70 -6.20421590626924445e-03
 71  3.08370299027313521e-04
 72  9.60057998734747606e-03
 73  2.73750248213393754e-04
 74  1.56461108516155905e-04
 75 -2.40243188647513723e-03
 76  4.35891124362742114e-05
 77 -2.26484938208822449e-04
 78 -4.14735590127041559e-05
 79 -2.31262023744866756e-06
 80  1.08270751978506677e-04
 81  1.43392359387518853e-03
 82  1.17252187674049893e-03
 83 -3.93808290865711651e-05
 84 -1.49776122876063935e-03
 85  7.91683103207124869e-04
 86  7.26480935312624277e-04
 87  7.50525783659816660e-04
 88  2.01838318813802236e-04
 89  3.64565311592852015e-04
 90 -7.48071807756808056e-04
 91  1.70341622007586185e-04
 92 -1.44567622813578719e-04
 93 -3.94010329100112142e-05
 94 -1.93095606009414632e-02
 95 -3.18656606517135925e-03
 96  1.91836204738922217e-03
 97  1.80380585863789203e-02
 98  1.75993911950888659e-04
 99  3.18447115475900457e-04
100 -7.20197429667089346e-04
101  3.01300535165892970e-05
102 -1.82160609014386533e-04
103 -1.77572956184459546e-04
104 -1.15933193216885833e-05
105 -5.59238298960009798e-05
106  1.17986869209531892e-03
107  1.02151916762305154e-03
108 -1.07426697985902662e-04
109 -1.11119955025165142e-04
110 -1.71392280510681834e-03
111 -1.64886393467550017e-03
112 -2.49927311660509558e-03
113  1.02230704931436278e-03
114 -3.40548383745768811e-04
115  3.36447656572048926e-04
116  1.29370629689358452e-04
117  2.48556600039152951e-04
118 -1.89476034743700050e-04
119  1.48502971938345029e-03
120  1.29005452119009319e-02
121  1.50906154667562352e-03
122  4.88102997183636339e-03
123 -2.87821508591414000e-04
124  1.85947483704403615e-03
125  1.81113803373518750e-04
126  2.60566215081431667e-04
127 -5.56625061405311328e-04
128 -1.19455576930260461e-03
129  5.49412236703725486e-05
130 -3.60086230973742053e-04
131 -7.36961026358998053e-04
132 -2.75973928902545373e-04
133  1.21051757655339350e-03
134  2.81091307621443587e-04
135  2.30086886689938753e-03
136  7.73671018267026102e-04
137 -3.57646569439025626e-03
138 -5.32987643260478955e-03
139 -5.67947876198658295e-04
140  9.92932722109958607e-04
141  4.22845323848264256e-03
142  2.13690997743214801e-03
143 -2.26473000266804760e-03
144 -1.00418283487588344e-03
145  7.40604391928240580e-04
146  7.47577138687641586e-04
147 -9.24045453104863253e-03
148  4.92863028894249822e-03
149 -5.42512781903504125e-03
150 -5.35092618718164929e-03
151  5.69746019804573769e-04
152  8.07130017969041056e-04
153  5.94239959294855520e-05
154  5.06717494641897599e-04
155 -4.59418377902223144e-04
156  8.10417008813640047e-04
 Sym= A
 Ene= -1.04665850673303726e+01
 Spin= Alpha
 Occup=  1.00000000000000000e+00
  1 -2.90564233599433246e-04
  2  2.81287940204980080e-04
  3 -4.29193469781489665e-04
  4  5.62948809818557920e-05
  5 -8.83945478019970308e-04
  6 -1.79017523796935990e-03
  7  2.40339839142049861e-03
  8 -2.95555152038973125e-04
  9  4.86519476442492330e-03
 10  1.66674948194729775e-03
 11 -2.97281625464466655e-03
 12 -1.02071118009233101e-04
 13 -1.03229804738458244e-03
 14 -1.51558919950881932e-03
 15 -2.23498918768411537e-03
 16  8.59483595476116926e-05
 17 -5.11433709503636880e-04
 18  1.51334115110454383e-04
 19 -1.36093367539837206e-02
 20  1.42674062314318605e-03
 21 -2.82628734449045247e-04
 22  1.48007818157376222e-03
 23 -3.27164241876080431e-04
 24  2.48469207119815245e-04
 25  1.84263838098280733e-03
 26  5.62970885882117078e-01
 27  4.63346093278947047e-01
 28  3.59759837555783052e-04
 29  7.41297927697845465e-05
 30  8.99164333649004813e-05
 31  1.87560715384259280e-02
 32  7.39716386743077955e-04
 33 -3.99570881209657678e-04
 34  3.92753821689717855e-03
 35 -1.42376867500694365e-02
 36  2.38730757491496673e-03
 37  6.19391378221856997e-04
 38 -3.56110534944174655e-03
 39  1.10325255595602675e-03
 40  1.80274343173471058e-03
 41 -1.60440770441691241e-04
 42  1.19777943546124730e-03
 43  1.13833716237115060e-04
 44  2.41351042840916054e-02
 45 -2.60086910704647499e-03
 46 -8.63609495455324762e-04
 47  5.28654819016617476e-03
 48  3.33893798326348153e-04
 49 -1.02661497769366921e-03
 50  1.09434753735950332e-03
 51  9.47329877072921461e-04
 52  8.52973652495327877e-04
 53  6.23084311795757601e-04
 54  6.77680985110336054e-05
 55 -8.58202695428888785e-05
 56  1.37938763251200651e-04
 57 -2.04018366412131837e-03
 58 -1.73293989541006003e-04
 59  6.40227007196525867e-04
 60  4.40634651666486649e-03
 61  2.71829417909361798e-03
 62  4.63935186498492006e-04
 63  2.38629769824490710e-03
 64  8.10364433597606003e-04
 65 -2.08275131958658282e-04
 66  9.77936031081056833e-05
 67 -9.08050831298222189e-04
 68 -3.29648223743806725e-04
 69 -1.87318317988614640e-02
 70 -1.14690884480205912e-03
 71  9.24214602168477054e-05
 72 -2.09837831258117332e-03
 73 -1.63337903294339526e-04
 74  3.32902302920816352e-04
 75  1.54374720187624667e-03
 76 -4.03134647637373275e-05
 77  5.89520224802548884e-05
 78  3.71181278717100054e-05
 79  1.15406304588428938e-05
 80 -9.20235937941015451e-05
 81 -4.73867084988862730e-04
 82 -5.54294180836784880e-04
 83 -3.36592753715013693e-05
 84  8.51463032584718563e-04
 85 -3.14064275700449199e-03
 86 -1.28113771960899599e-03
 87 -1.23362051146915332e-04
 88 -4.64553833983131017e-04
 89 -1.82616825593975184e-04
 90  4.26801217782743264e-04
 91  3.82177071163985332e-05
 92  4.69545192772448318e-05
 93  4.51426841731318338e-05
 94  5.12902324520655463e-03
 95  1.12910793412454124e-03
 96 -4.59909116513724061e-04
 97 -3.03697147542644069e-03
 98 -8.06474389877682307e-05
 99 -1.38826001187334101e-04
100  3.51121580056068527e-04
101 -4.49510978460885419e-05
102  3.71100927467554886e-05
103  8.75247523599439181e-06
104 -1.87968379264870303e-05
105 -6.32307914071881821e-06
106 -5.27887282460845399e-04
107 -1.00361959906149979e-04
108  1.09600009326010105e-04
109  1.51106351008044028e-04
110  2.93398872033935870e-03
111  4.82696951272195416e-04
112 -1.73447709838012555e-04
113 -7.67827137244744655e-04
114  1.76496493430404817e-05
115 -9.33710804990672621e-05
116 -1.16164794361856680e-05
117 -4.14856630993289249e-06
118  4.02457872868917783e-05
119 -4.46662204716586232e-03
120 -2.98274051593418361e-03
121 -9.79148951184698494e-05
122  1.05996721185703583e-05
123  6.82918211494948368e-05
124 -5.14780048792782261e-04
125  4.32232044502776198e-04
126 -1.53033174253377092e-05
127 -2.01939204126304556e-04
128  2.30180151925212911e-04
129 -8.60616266798126860e-05
130  2.45294235575747474e-05
131  7.60983902553466360e-05
132  1.11750924363219369e-05
133 -1.26155579341514948e-04
134 -2.85365653791536198e-04
135 -3.76058862014862130e-04
136 -1.18020101498468943e-04
137  7.86916992409720834e-04
138 -2.02959656223966351e-03
139  7.07836846836393859e-04
140 -6.54093956233869011e-04
141  2.65686330908814243e-04
142 -3.24472388753734248e-04
143  3.69880306246976457e-04
144  1.59404929144172172e-04
145  7.03702251161464055e-05
146 -2.00845296136653108e-05
147  7.61073605305579836e-03
148 -1.29392219848203059e-03
149  1.25091903670297906e-03
150 -2.64032987142726375e-04
151  3.30691480762510066e-05
152 -1.58625083621748001e-04
153 -3.46789889068870733e-04
154 -1.17444096918245316e-04
155  2.23247945299439053e-04
156 -9.27979165730029201e-05
 Sym= A
 Ene= -1.04047333054212512e+01
 Spin= Alpha
 Occup=  1.00000000000000000e+00
  1 -6.23806683311705121e-05
  2  3.82280177060393398e-06
  3 -2.05869779278575985e-04
  4 -1.12223130256026030e-04
  5  6.58900877397284408e-04
  6  9.12218454516425391e-06
  7  1.97769627750037482e-04
  8  3.14437889894286662e-04
  9 -2.30826717308543717e-03
 10  7.94078043279212130e-03
 11 -4.49744024698237564e-03
 12 -9.32888869509352204e-04
 13  3.98522595757934937e-03
 14 -4.06395435971902718e-04
 15  1.19242673284087556e-03
 16  3.05048736969457882e-04
 17  6.42159978726264966e-05
 18 -1.25019712713105496e-04
 19  2.00177816010224802e-02
 20 -3.80949241556551412e-03
 21 -7.79988979442613941e-04
 22 -2.69250158973579181e-03
 23 -2.05668660797241222e-04
 24  3.15053848805899842e-04
 25  1.37904784946761083e-03
 26  6.20245720801812831e-05
 27  1.66910030585231247e-04
 28  9.30369569684348017e-05
 29 -2.26008023669261357e-05
 30  1.05772220572216297e-04
 31 -5.40719784846302367e-04
 32 -6.88995931396099433e-04
 33  1.46982616811475224e-04
 34 -1.16204497568243447e-03
 35 -3.83942322996872745e-03
 36  2.93589024774834964e-03
 37  3.20753394123872492e-04
 38 -2.12216264469084924e-03
 39 -3.84789948979792770e-04
 40 -4.30646609189343308e-04
 41 -2.08101526180034187e-05
 42  9.81607740084841591e-05
 43  1.16263790730682058e-04
 44 -2.51098477223931811e-02
 45  9.13041150172211975e-04
 46  1.08939663487697680e-03
 47 -3.90597505742837966e-03
 48 -1.88339244421164820e-05
 49 -6.98818505942494744e-04
 50 -5.30155223863565498e-05
 51 -1.21536327661388321e-04
 52 -2.13646615606567750e-05
 53  4.89925750829293510e-05
 54 -2.40444868132003625e-05
 55  2.42280231532990335e-05
 56 -5.92709202637710180e-04
 57 -2.90485019029103645e-04
 58  7.90780934682889668e-05
 59 -2.29974771737653523e-04
 60  4.30863963043847265e-03
 61  1.83326550434015465e-03
 62  3.12680065137042158e-04
 63  2.16851317659454406e-03
 64  7.13214229934368575e-05
 65 -6.96466446103739580e-06
 66  1.35303525894649719e-05
 67  3.01830952558385043e-05
 68 -3.93037520712856796e-05
 69  9.55746179759662910e-03
 70  3.57003728523639296e-03
 71 -1.35835815146476011e-04
 72  1.49594325064974836e-03
 73 -9.02199101013334998e-05
 74  3.53973041416736516e-04
 75  8.29377230593996654e-04
 76 -1.56586250510628552e-04
 77 -6.16076144396478649e-05
 78  2.44184918465160899e-05
 79  1.01134181623507522e-05
 80  8.91245431320125865e-05
 81 -3.54053005309299610e-04
 82 -3.15672762556718260e-04
 83 -3.73900064532297618e-05
 84 -4.38577907829953680e-04
 85 -2.51097264454188535e-03
 86 -6.17330308284432731e-04
 87 -1.73987381896276633e-04
 88  4.08287159104601309e-04
 89 -2.03105423059153953e-04
 90 -1.27467898063467238e-04
 91 -5.92717625494775641e-06
 92  1.46516119214630156e-04
 93 -1.69433361288728646e-04
 94 -1.26336782451792976e-02
 95 -1.99270809361668574e-03
 96  6.16217687135687229e-05
 97 -4.31030948796814941e-03
 98 -8.19484801013692187e-05
 99  3.34608028641157192e-07
100  4.88788910179053745e-04
101  1.42831011156476341e-03
102  1.26968522752856413e-03
103  4.89398574442283609e-04
104 -1.64917121051814887e-04
105  6.30052676216195782e-05
106 -2.96277014993757168e-04
107 -1.16741879452857719e-03
108  3.90684859278303488e-04
109 -2.98786730748553243e-04
110  6.54765987955918758e-03
111  2.77966886064432957e-03
112 -1.37194741295337689e-03
113  3.79534471748479326e-05
114  4.94930086562328140e-04
115  1.21943847957775510e-04
116  6.67416660190201709e-05
117 -6.69917221380519402e-04
118  5.27438469962433526e-04
119  1.83506361292191389e-02
120 -7.50397343267303341e-04
121 -2.44172631067263429e-03
122 -2.93910788996717921e-03
123 -1.73224171676737368e-04
124 -3.61275574782928596e-04
125  3.87269690823948754e-04
126 -8.67065837197157716e-05
127 -5.76442412344019750e-04
128 -6.44294702430387193e-04
129  5.62982447220869209e-01
130  4.63535802558534327e-01
131  3.96007157622021533e-04
132  1.07706562292252461e-04
133 -6.15448389581445330e-04
134  1.80335760468909242e-02
135 -5.52175260053880466e-04
136  4.73059759857000250e-04
137 -7.81715304143551157e-04
138 -2.46883144063440654e-02
139  1.08304272995087751e-03
140 -1.07270505481185923e-03
141  2.86003058139310765e-03
142  9.29634338739377514e-05
143 -3.76116899000719478e-04
144 -1.00465636169523644e-04
145  3.28088649329106468e-04
146 -8.17732193373412765e-05
147 -1.25656688343914608e-02
148  1.56790823532163308e-03
149  6.64430541267223241e-04
150  1.04508140929535868e-03
151 -1.32563187361737464e-04
152  1.14549329701368148e-03
153  3.90394718157031613e-03
154 -1.16532871210067143e-04
155  9.85242589118377450e-04
156  3.63265102452159762e-03
 Sym= A
 Ene= -1.03850533870236887e+01
 Spin= Alpha
 Occup=  1.00000000000000000e+00
  1  1.39676212632265818e-05
  2 -7.10051933666021377e-05
  3  1.37182573459010688e-05
  4  9.06313322006844503e-07
  5  4.06343279716564563e-05
  6  4.75243565884886940e-04
  7 -4.06906864513893805e-04
  8  1.19357754079577948e-05
  9 -5.31231225595043036e-04
 10  6.39124525601235307e-04
 11 -4.50940305679150004e-04
 12 -2.79142143392371454e-04
 13  3.55781752754322201e-05
 14  1.26331124535390200e-04
 15  2.70129124251963131e-04
 16 -5.42401823145090257e-05
 17 -4.84025814141300927e-05
 18 -1.42775304224943866e-05
 19 -7.32347213198176680e-03
 20  1.16779466848617635e-03
 21 -7.10400653739182175e-04
 22  6.72748628731123077e-03
 23  5.69513041172416815e-05
 24  1.34067865665580209e-04
 25 -2.15016174791745533e-04
 26  1.61842772653460547e-05
 27 -6.97789992928066872e-05
 28  2.37137565518699282e-04
 29  2.93031954609512512e-05
 30  9.65405289817214705e-05
 31  3.47579580322983502e-04
 32 -1.47727157548202190e-03
 33 -1.57289565519082942e-04
 34 -5.05794831306241675e-04
 35 -7.65485771455428395e-04
 36  8.14145617652943933e-04
 37  2.49020869414120799e-04
 38 -3.04699366385570284e-04
 39 -6.96017283014382817e-04
 40 -1.72163100736990850e-04
 41 -1.69649196930866364e-05
 42  3.94262322340479545e-04
 43  1.39346442909142376e-04
 44  1.89932686586497361e-02
 45  2.33687346923427399e-03
 46 -9.28555082533735830e-05
 47  3.67132915791023836e-03
 48  9.78086332549852428e-05
 49  1.99780277090322809e-05
 50 -9.24008610747729660e-04
 51 -1.99058644019469086e-02
 52 -1.69294208230568732e-02
 53  6.00547516058970400e-04
 54 -2.25687671472253643e-05
 55 -7.79497516413120472e-04
 56  1.39133798432200593e-03
 57 -3.64536044590491699e-03
 58  1.40690282239328598e-04
 59  4.84654603911995833e-03
 60  6.65622814759716120e-04
 61  4.22658401132138429e-04
 62 -3.83179969433444366e-04
 63 -2.31459686014623975e-03
 64  1.98582151894627530e-03
 65 -2.25582184056246499e-03
 66  1.43880472560116402e-04
 67  2.87474228083353276e-04
 68 -2.16367572453252008e-04
 69  5.41417384863848977e-03
 70 -1.94300444527765082e-03
 71  4.66952708926596650e-04
 72 -1.60099442781815499e-04
 73  2.89773113911280153e-04
 74 -1.38890745792338903e-04
 75 -1.59378076199243502e-03
 76 -5.62442173483160723e-01
 77 -4.63036267526846679e-01
 78  3.23716529107206876e-04
 79 -2.31316654626135545e-05
 80 -3.77454368770739688e-04
 81 -1.92968538685771539e-02
 82 -3.21448632841185925e-03
 83 -4.32596644036321565e-07
 84  3.56755255453595436e-03
 85  1.22343830315028140e-02
 86  2.84963630584028496e-03
 87  5.42020503595230774e-04
 88 -2.43874571788597552e-04
 89 -1.97675849598619039e-03
 90  1.63570493383508541e-03
 91 -3.06941172132722221e-04
 92 -7.29931699906070453e-04
 93  9.07524257996661402e-06
 94 -1.38122245139592897e-02
 95 -3.98159220687952387e-03
 96 -1.37553068647521350e-03
 97  1.73395480245993727e-03
 98 -3.05217347245931813e-04
 99  9.09505749644028941e-04
100 -1.68832334159674247e-03
101 -3.79483725272114145e-03
102 -3.20512636086190718e-03
103  2.59107964709305886e-04
104  1.02998775825010469e-04
105  4.32699582820565069e-04
106 -1.91659504197559059e-04
107 -6.66582254760036508e-04
108 -2.26209447634087053e-04
109 -1.00016794965409445e-03
110 -1.41552357917426575e-03
111  2.23778426926735634e-04
112 -4.31361792502043704e-04
113  1.34380004102627832e-03
114  6.22219459057755920e-04
115  6.80143898733454868e-04
116  3.00847614720141788e-04
117  2.67625170651309503e-04
118  2.31925389029923306e-04
119 -4.12431020185757662e-03
120 -1.71846062763026004e-03
121  2.03824418137382767e-03
122 -1.70987874090585117e-03
123  1.88298086795752164e-04
124  2.64327088617019015e-04
125  6.52845712995310458e-05
126  1.62958557851852298e-04
127 -2.20999125773070279e-04
128  3.49823139735241798e-04
129 -1.37646015138588709e-04
130 -1.77895161412505720e-04
131  5.47585955570604818e-05
132  7.78965110733393504e-06
133 -1.61706742391990039e-05
134  4.10102326320663821e-04
135 -3.15248363450576941e-04
136  1.74818154200631951e-05
137 -4.61789245503209429e-05
138 -8.80685129564313788e-04
139  6.34858559418689621e-04
140  8.66546609775734294e-04
141  4.14766056603644683e-04
142 -9.83212214124745188e-05
143 -1.10053086425245742e-04
144 -3.76704023963317811e-05
145  7.89680695212443862e-05
146 -4.82808247413977939e-05
147  4.16915713186087893e-04
148 -4.73699043388723599e-03
149 -5.92852552946807531e-04
150  1.74952043397623154e-03
151 -1.01022508115932829e-04
152  6.81342855116783192e-04
153  6.35924460998660556e-05
154  8.21156782924287979e-05
155 -1.83260588111329388e-04
156 -3.86185188667175785e-04
 Sym= A
 Ene= -1.03711151909338835e+01
 Spin= Alpha
 Occup=  1.00000000000000000e+00
  1  1.26988012923313689e-05
  2 -7.01755607667448999e-05
  3  3.57316502397203313e-05
  4  1.38651272078952966e-05
  5  8.52078707148422267e-05
  6  4.06321096518672843e-04
  7 -5.18834819205818984e-04
  8 -4.69631163239210062e-05
  9 -7.75777127098373990e-04
 10  3.61170956209135334e-03
 11 -1.52968373324085648e-03
 12 -1.28492954738952762e-04
 13  3.72022956593713377e-04
 14  1.67545362646683363e-04
 15  3.86546794856314593e-04
 16  3.69309696765924672e-05
 17 -4.82543691538072565e-05
 18 -3.87596671565252552e-05
 19 -6.91799989371597555e-03
 20  1.31746933219524152e-03
 21 -5.17141653582496867e-04
 22  3.33433760556194666e-03
 23  7.32171233716252535e-05
 24  1.57930612352727445e-04
 25 -2.57031335088081265e-04
 26  1.00063157825878903e-03
 27  7.72695815835130139e-04
 28  6.00974529555104841e-04
 29  6.54184257208507053e-05
 30  7.29308168725793798e-05
 31 -1.27313846078350032e-04
 32 -1.78189142620620300e-03
 33 -1.43488323134169805e-04
 34 -5.65559821709574499e-04
 35 -4.82682367716632046e-03
 36  2.69027598316755627e-03
 37  4.83529638617665651e-04
 38 -2.79240775274952049e-03
 39 -7.22230583250409912e-04
 40 -1.87593165609696832e-04
 41  9.90641903152579231e-05
 42  8.28605674788347323e-04
 43  3.06627576885466768e-04
 44  1.94656862109238681e-02
 45 -7.10363647104423311e-04
 46  1.41487086785800967e-04
 47  2.66914938782469727e-03
 48  1.59598940894817434e-04
 49 -3.97656909420852727e-04
 50 -1.59888631254088021e-03
 51 -5.62460247581300532e-01
 52 -4.62948509672038711e-01
 53 -5.20961931691822882e-04
 54 -1.36983884879079857e-05
 55  4.98577916516449587e-04
 56 -1.97154387489154592e-02
 57  1.66521368069048772e-03
 58 -3.69097715060019151e-04
 59 -4.86910951969860960e-03
 60  1.48500797709806044e-02
 61  2.06724554085635417e-03
 62  6.16523146223818650e-04
 63  4.15060123074360333e-03
 64 -1.35764441502752718e-03
 65  2.12690744619812135e-03
 66 -1.63371414388050178e-04
 67 -1.14162742716832186e-03
 68 -5.63526739519209824e-05
 69 -2.57485780431884921e-02
 70 -1.75693769202759850e-03
 71 -8.02163800960569947e-04
 72 -5.99605544143642748e-03
 73 -3.71642784732737765e-04
 74  1.05636765095914196e-03
 75 -9.77732309364231318e-04
 76  2.01863966130010342e-02
 77  1.60664010534622252e-02
 78 -4.29468114062018310e-04
 79  6.10011545075611381e-05
 80  8.99983401712855504e-04
 81  2.79998989083145734e-03
 82  2.75835158320798845e-03
 83 -3.32318398036882709e-04
 84 -5.51612999822942256e-03
 85 -2.25485334227296021e-03
 86 -3.10881976583489818e-03
 87 -6.03391205102627113e-05
 88  1.31503530565955018e-03
 89  1.74196191208358811e-03