[Molden Format]
[Atoms] (AU)
C    1    6         2.629487081914       0.093476835175      -0.212912561290
H    2    1         4.611654542927       0.302615517583      -0.233944234755
C    3    6         1.374259263318       0.191322606791      -2.346684474049
H    4    1         2.346381966313       0.518776997128      -4.119567358050
C    5    6        -1.374258746478      -0.191322258704      -2.346683658821
H    6    1        -2.346380663536      -0.518778527239      -4.119566463454
C    7    6        -2.629487000845      -0.093475165602      -0.212912062969
H    8    1        -4.611654185013      -0.302615163448      -0.233943342048
C    9    6        -1.373192188454       0.455443034848       2.246402049504
H   10    1        -1.488313025050       2.498821411122       2.579052207052
H   11    1        -2.419542110438      -0.446949438545       3.775431299036
C   12    6         1.373191124160      -0.455443107792       2.246401431375
H   13    1         1.488312603264      -2.498821715368       2.579050874984
H   14    1         2.419541338107       0.446948974051       3.775430768968
[GTO]
  1 0
 s    6  1.00
     4563.2400000000         0.0019666500
      682.0240000000         0.0152306000
      154.9730000000         0.0761269000
       44.4553000000         0.2608010000
       13.0290000000         0.6164620000
        1.8277300000         0.2210060000
 s    3  1.00
       20.9642000000         0.1146600000
        4.8033100000         0.9199990000
        1.4593300000        -0.0030306800
 p    3  1.00
       20.9642000000         0.0402487000
        4.8033100000         0.2375940000
        1.4593300000         0.8158540000
 s    1  1.00
        0.4834560000         1.0000000000
 p    1  1.00
        0.4834560000         1.0000000000
 s    1  1.00
        0.1455850000         1.0000000000
 p    1  1.00
        0.1455850000         1.0000000000
 d    1  1.00
        0.6260000000         1.0000000000
 s    1  1.00
        0.0438000000         1.0000000000
 p    1  1.00
        0.0438000000         1.0000000000

  2 0
 s    3  1.00
       33.8650000000         0.0254938000
        5.0947900000         0.1903730000
        1.1587900000         0.8521610000
 s    1  1.00
        0.3258400000         1.0000000000
 s    1  1.00
        0.1027410000         1.0000000000

  3 0
 s    6  1.00
     4563.2400000000         0.0019666500
      682.0240000000         0.0152306000
      154.9730000000         0.0761269000
       44.4553000000         0.2608010000
       13.0290000000         0.6164620000
        1.8277300000         0.2210060000
 s    3  1.00
       20.9642000000         0.1146600000
        4.8033100000         0.9199990000
        1.4593300000        -0.0030306800
 p    3  1.00
       20.9642000000         0.0402487000
        4.8033100000         0.2375940000
        1.4593300000         0.8158540000
 s    1  1.00
        0.4834560000         1.0000000000
 p    1  1.00
        0.4834560000         1.0000000000
 s    1  1.00
        0.1455850000         1.0000000000
 p    1  1.00
        0.1455850000         1.0000000000
 d    1  1.00
        0.6260000000         1.0000000000
 s    1  1.00
        0.0438000000         1.0000000000
 p    1  1.00
        0.0438000000         1.0000000000

  4 0
 s    3  1.00
       33.8650000000         0.0254938000
        5.0947900000         0.1903730000
        1.1587900000         0.8521610000
 s    1  1.00
        0.3258400000         1.0000000000
 s    1  1.00
        0.1027410000         1.0000000000

  5 0
 s    6  1.00
     4563.2400000000         0.0019666500
      682.0240000000         0.0152306000
      154.9730000000         0.0761269000
       44.4553000000         0.2608010000
       13.0290000000         0.6164620000
        1.8277300000         0.2210060000
 s    3  1.00
       20.9642000000         0.1146600000
        4.8033100000         0.9199990000
        1.4593300000        -0.0030306800
 p    3  1.00
       20.9642000000         0.0402487000
        4.8033100000         0.2375940000
        1.4593300000         0.8158540000
 s    1  1.00
        0.4834560000         1.0000000000
 p    1  1.00
        0.4834560000         1.0000000000
 s    1  1.00
        0.1455850000         1.0000000000
 p    1  1.00
        0.1455850000         1.0000000000
 d    1  1.00
        0.6260000000         1.0000000000
 s    1  1.00
        0.0438000000         1.0000000000
 p    1  1.00
        0.0438000000         1.0000000000

  6 0
 s    3  1.00
       33.8650000000         0.0254938000
        5.0947900000         0.1903730000
        1.1587900000         0.8521610000
 s    1  1.00
        0.3258400000         1.0000000000
 s    1  1.00
        0.1027410000         1.0000000000

  7 0
 s    6  1.00
     4563.2400000000         0.0019666500
      682.0240000000         0.0152306000
      154.9730000000         0.0761269000
       44.4553000000         0.2608010000
       13.0290000000         0.6164620000
        1.8277300000         0.2210060000
 s    3  1.00
       20.9642000000         0.1146600000
        4.8033100000         0.9199990000
        1.4593300000        -0.0030306800
 p    3  1.00
       20.9642000000         0.0402487000
        4.8033100000         0.2375940000
        1.4593300000         0.8158540000
 s    1  1.00
        0.4834560000         1.0000000000
 p    1  1.00
        0.4834560000         1.0000000000
 s    1  1.00
        0.1455850000         1.0000000000
 p    1  1.00
        0.1455850000         1.0000000000
 d    1  1.00
        0.6260000000         1.0000000000
 s    1  1.00
        0.0438000000         1.0000000000
 p    1  1.00
        0.0438000000         1.0000000000

  8 0
 s    3  1.00
       33.8650000000         0.0254938000
        5.0947900000         0.1903730000
        1.1587900000         0.8521610000
 s    1  1.00
        0.3258400000         1.0000000000
 s    1  1.00
        0.1027410000         1.0000000000

  9 0
 s    6  1.00
     4563.2400000000         0.0019666500
      682.0240000000         0.0152306000
      154.9730000000         0.0761269000
       44.4553000000         0.2608010000
       13.0290000000         0.6164620000
        1.8277300000         0.2210060000
 s    3  1.00
       20.9642000000         0.1146600000
        4.8033100000         0.9199990000
        1.4593300000        -0.0030306800
 p    3  1.00
       20.9642000000         0.0402487000
        4.8033100000         0.2375940000
        1.4593300000         0.8158540000
 s    1  1.00
        0.4834560000         1.0000000000
 p    1  1.00
        0.4834560000         1.0000000000
 s    1  1.00
        0.1455850000         1.0000000000
 p    1  1.00
        0.1455850000         1.0000000000
 d    1  1.00
        0.6260000000         1.0000000000
 s    1  1.00
        0.0438000000         1.0000000000
 p    1  1.00
        0.0438000000         1.0000000000

  10 0
 s    3  1.00
       33.8650000000         0.0254938000
        5.0947900000         0.1903730000
        1.1587900000         0.8521610000
 s    1  1.00
        0.3258400000         1.0000000000
 s    1  1.00
        0.1027410000         1.0000000000

  11 0
 s    3  1.00
       33.8650000000         0.0254938000
        5.0947900000         0.1903730000
        1.1587900000         0.8521610000
 s    1  1.00
        0.3258400000         1.0000000000
 s    1  1.00
        0.1027410000         1.0000000000

  12 0
 s    6  1.00
     4563.2400000000         0.0019666500
      682.0240000000         0.0152306000
      154.9730000000         0.0761269000
       44.4553000000         0.2608010000
       13.0290000000         0.6164620000
        1.8277300000         0.2210060000
 s    3  1.00
       20.9642000000         0.1146600000
        4.8033100000         0.9199990000
        1.4593300000        -0.0030306800
 p    3  1.00
       20.9642000000         0.0402487000
        4.8033100000         0.2375940000
        1.4593300000         0.8158540000
 s    1  1.00
        0.4834560000         1.0000000000
 p    1  1.00
        0.4834560000         1.0000000000
 s    1  1.00
        0.1455850000         1.0000000000
 p    1  1.00
        0.1455850000         1.0000000000
 d    1  1.00
        0.6260000000         1.0000000000
 s    1  1.00
        0.0438000000         1.0000000000
 p    1  1.00
        0.0438000000         1.0000000000

  13 0
 s    3  1.00
       33.8650000000         0.0254938000
        5.0947900000         0.1903730000
        1.1587900000         0.8521610000
 s    1  1.00
        0.3258400000         1.0000000000
 s    1  1.00
        0.1027410000         1.0000000000

  14 0
 s    3  1.00
       33.8650000000         0.0254938000
        5.0947900000         0.1903730000
        1.1587900000         0.8521610000
 s    1  1.00
        0.3258400000         1.0000000000
 s    1  1.00
        0.1027410000         1.0000000000

[5D]
[9G]

[MO]
 Sym= A
 Ene= -1.37125938576213908e+01
 Spin= Alpha
 Occup=  1.00000000000000000e+00
  1  6.23803134636272016e-01
  2  4.21211492298953660e-01
  3 -1.97060291836316211e-03
  4 -7.61275409281681278e-05
  5 -1.67883471075240954e-03
  6 -5.91400169462148254e-02
  7  1.25124778045638107e-02
  8  1.57642840430752328e-04
  9  1.27617596687749340e-02
 10  4.38309507901931544e-02
 11 -1.06730904534491407e-02
 12 -1.83922226891110254e-03
 13 -1.40100105334756597e-03
 14 -7.12880024755896315e-03
 15 -5.52711898277107906e-03
 16  1.07837194198789530e-03
 17 -1.97760794445831466e-03
 18  1.17125657283357584e-04
 19 -5.37535224881661514e-02
 20  1.38294212648559407e-02
 21  4.47587601113005797e-03
 22  6.82896500361632446e-03
 23 -9.20078700944454019e-05
 24  2.39261989395460339e-03
 25 -4.71722736081177027e-03
 26  4.66180907930388545e-04
 27 -2.01364306727664071e-03
 28 -1.95488298806927334e-03
 29  5.12093922757641420e-05
 30 -2.35399682927826337e-03
 31  8.47637673795601822e-03
 32  1.37568168856686251e-02
 33 -5.47755086546987489e-04
 34  1.85322590259364567e-02
 35 -6.87952345703179979e-04
 36 -1.55126568714304865e-03
 37  1.38366012597869350e-03
 38 -9.16089451743318239e-03
 39  7.56458802119192291e-03
 40  8.82074618669964443e-03
 41 -5.23942630540180838e-04
 42  1.04748085277870566e-03
 43 -8.59030964670540165e-04
 44  2.39433240365755536e-02
 45  7.52314211845454307e-03
 46 -1.56591811106456219e-03
 47  1.20469218831542450e-03
 48  1.15895948822318474e-03
 49 -6.07808660509474743e-04
 50 -5.56946162083485005e-03
 51  5.00305303138360715e-05
 52 -2.95908156238918179e-04
 53 -8.21520540581726147e-04
 54 -1.02773548871353587e-04
 55  3.37096168285268749e-04
 56  1.31827768638898891e-03
 57  5.30303412061803280e-03
 58  5.66748691999383850e-04
 59 -1.75338736388204594e-03
 60 -1.57268412096313879e-03
 61 -2.64684990000607114e-03
 62 -7.64808677436821550e-04
 63 -2.74473264381568246e-04
 64 -2.47944109870104753e-03
 65  6.85233265601305533e-04
 66  8.92983998212312286e-05
 67  1.35125630393496867e-03
 68  4.66149724520105598e-04
 69  6.12088521805628366e-02
 70 -7.12482308522552777e-03
 71  3.81161131238347425e-04
 72  1.14495817691976313e-02
 73  3.38726556131067544e-04
 74  1.80548025999136268e-04
 75 -2.93308627991782818e-03
 76  5.39167463438419161e-05
 77 -2.90202812228178037e-04
 78 -5.15216084672223302e-05
 79 -1.88392455554511981e-06
 80  1.38337842098103231e-04
 81  1.77908766942721651e-03
 82  1.44857260171268420e-03
 83 -5.26795245796471786e-05
 84 -1.88390734164160475e-03
 85  1.06514054591119885e-03
 86  8.79326294250429839e-04
 87  8.82405212905286885e-04
 88  2.78839230966737887e-04
 89  4.60940937686164353e-04
 90 -9.33629072677930028e-04
 91  2.05250458362541148e-04
 92 -1.74892438344614572e-04
 93 -5.33801623039977704e-05
 94 -2.31365389580640395e-02
 95 -3.86526069322257800e-03
 96  2.27554887069486263e-03
 97  2.14078936316536086e-02
 98  2.19131465658053715e-04
 99  3.77561934070512993e-04
100 -8.97387545439091278e-04
101  3.68018868432178897e-05
102 -2.30993579095212622e-04
103 -2.22967844587669030e-04
104 -1.09555724757404719e-05
105 -6.40166540679121412e-05
106  1.41753349140116467e-03
107  1.24450814051423725e-03
108 -1.44081996471194843e-04
109 -1.40272318872979197e-04
110 -2.13736951722223473e-03
111 -1.96345780311327168e-03
112 -2.90930167451141633e-03
113  1.21334919871824635e-03
114 -4.17247267907936814e-04
115  4.06599825028718142e-04
116  1.61706126295986540e-04
117  3.14253275460095233e-04
118 -2.36920915291211694e-04
119  1.95760158830591722e-03
120  1.53527492236572461e-02
121  1.79513109324321691e-03
122  5.75019039797948495e-03
123 -3.39961458405005259e-04
124  2.20161107118278148e-03
125  1.90430749400470584e-04
126  3.16358644084854660e-04
127 -6.35517995222012271e-04
128 -1.41123012612742824e-03
129  8.46754021878184476e-05
130 -4.69032476549783336e-04
131 -8.85842573492652855e-04
132 -3.27570686802667861e-04
133  1.44325327135888417e-03
134  4.38954096728023132e-04
135  2.92489445174253133e-03
136  9.85964456093792272e-04
137 -4.56339650539594553e-03
138 -5.84592997330361103e-03
139 -6.92296016149055739e-04
140  1.18689750627086347e-03
141  4.89660122453010153e-03
142  2.68403147663249944e-03
143 -2.82913222197941601e-03
144 -1.25954988905289359e-03
145  9.13987827396341114e-04
146  9.33926860192803559e-04
147 -1.14831802730319486e-02
148  5.81398313524153672e-03
149 -6.48788787897717784e-03
150 -6.23736268289254350e-03
151  7.01742102333192692e-04
152  9.24539873920649869e-04
153  3.28254490635133424e-05
154  6.19850386795208408e-04
155 -5.65445131025513604e-04
156  9.40358600052980257e-04
 Sym= A
 Ene= -1.15285717088473127e+01
 Spin= Alpha
 Occup=  1.00000000000000000e+00
  1 -3.71037171718239893e-04
  2 -3.51372586259565711e-04
  3 -1.94837343367195006e-04
  4  1.00555123176015766e-05
  5 -3.11026086195681506e-04
  6  7.35147630089598675e-04
  7 -2.07796095756638595e-04
  8  3.05120144402468653e-05
  9 -4.24766926147813854e-04
 10 -6.17130385887367980e-04
 11  1.32603691314134512e-05
 12 -3.67396210221915522e-05
 13  2.89009470212169559e-04
 14  1.19151725618625771e-04
 15  2.30415619618514329e-04
 16  1.23854717237207042e-05
 17 -5.78380906103588674e-05
 18 -4.45189178433793737e-05
 19 -3.19507694279651459e-05
 20  1.44217192213624661e-04
 21  8.78392325313935243e-05
 22 -9.43356146138085044e-04
 23  2.69128936049533724e-05
 24  4.51992111376363852e-05
 25  9.50910417565085815e-06
 26  5.63531314898482183e-01
 27  4.66715362363987529e-01
 28  4.52542309149246138e-04
 29  2.11777380232872899e-05
 30  7.15332074407639719e-04
 31  3.15501292329912336e-03
 32 -3.45399730124021549e-04
 33 -1.28622492648202102e-05
 34 -5.40597568724170922e-04
 35 -1.93269746377732144e-04
 36  3.30115286635309041e-04
 37  5.83451659028470984e-06
 38  4.49745325756312154e-04
 39  2.74181113728217947e-04
 40 -8.24082937655757497e-05
 41 -1.33649486174129337e-04
 42  5.42907968135438162e-04
 43  1.54462471753661430e-04
 44 -2.28684806280030068e-04
 45 -9.39087251924319204e-04
 46 -1.18068743330041286e-04
 47  8.27029004769533604e-05
 48  3.59671364858674353e-04
 49 -1.72073102151195533e-04
 50  5.25498018664304371e-04
 51  2.25741734517472892e-03
 52  1.81811695969928732e-03
 53  1.58580756515686212e-04
 54  2.09914016907548566e-05
 55 -1.19977865429532969e-06
 56  2.63342724983006531e-04
 57  1.56494752008764067e-04
 58  1.82067913414884497e-05
 59 -2.72875701505650843e-05
 60 -7.17271330295064215e-07
 61  9.16051138900896483e-05
 62  1.63566977183448652e-05
 63 -5.65837096058123190e-05
 64 -1.02595462626336507e-04
 65  3.61633355675175589e-05
 66  8.67759179343844535e-06
 67 -1.61697787979475884e-07
 68 -2.45541931728372079e-06
 69 -1.49398104213920805e-03
 70  6.29878419652721050e-05
 71  9.71543729263884278e-06
 72 -2.48817542918281397e-05
 73  4.27050252102814792e-06
 74 -1.57576434034378022e-06
 75  3.00252235611795358e-05
 76  2.50606506251128955e-05
 77  1.34600998581405924e-05
 78 -7.56506534392559267e-06
 79  4.07174501149215518e-06
 80  5.24760979135415633e-06
 81  4.52393015283311512e-05
 82  3.56352488962461835e-05
 83 -1.01263640230580325e-05
 84 -4.69280067747564035e-05
 85  3.04214753243050478e-05
 86 -5.14906284122350395e-05
 87 -5.56091070817395417e-06
 88 -1.35790882450850825e-05
 89 -3.10369738697899779e-06
 90 -2.20849017725015038e-05
 91  2.94250998298538412e-06
 92  3.86172944750272295e-06
 93 -4.65110898512816552e-06
 94 -6.98474588014415623e-04
 95 -1.25317608604288148e-04
 96 -6.92036584909616360e-05
 97 -5.78993223570454228e-04
 98  6.07785001474692637e-06
 99 -7.71597524344001539e-06
100  2.83975598472231402e-07
101 -2.10751471865368036e-05
102 -1.88538389373327983e-05
103 -4.08019248945234321e-06
104  2.96126404582337727e-06
105  4.70133121803875403e-06
106 -2.59138138776364955e-06
107  1.31803440738954120e-05
108 -1.07141044217455062e-05
109 -1.11399278745197529e-05
110  9.47998770590492186e-05
111  1.77516101099124177e-06
112  6.57264584829384235e-06
113  1.87417980785662143e-05
114 -2.78660920255662416e-06
115  6.62058048123559417e-06
116  1.59694631701698121e-06
117  2.85706587901197083e-06
118 -4.62458162412110876e-06
119  9.02994837972853170e-04
120 -3.55125697166302308e-04
121 -1.80669699759322970e-04
122 -2.20279575548516327e-04
123  3.50447215198768442e-06
124 -2.28746490275993626e-05
125 -1.91479779491687296e-05
126  1.37759142443169348e-06
127  8.74015176281875530e-07
128 -8.92138581360026880e-05
129 -5.85742250840594014e-05
130 -5.78074425701119302e-05
131  1.82695482055570682e-06
132 -1.37105635235667027e-06
133  1.75899928148194854e-05
134  5.66986757303237178e-05
135  6.99954038335451476e-06
136  1.00659229928307852e-05
137 -7.25801467979705076e-05
138 -1.65863125432344830e-04
139  1.48489022732471654e-05
140 -3.25530281953116164e-05
141  1.00138068826236345e-04
142  3.28062479872393969e-05
143 -2.46858249908478642e-06
144 -8.89741061204056916e-06
145 -1.64408274397014410e-05
146  1.44823809692153233e-06
147  1.69362788959427960e-03
148  2.09207129235877091e-04
149  2.55246429545811289e-04
150 -2.12553228419633559e-04
151 -4.41039507875173442e-06
152  1.57948166114460918e-05
153 -5.66199144248093862e-05
154  3.41954257151356197e-08
155  3.64429945829980936e-05
156 -1.40064149703179506e-04
 Sym= A
 Ene= -1.14609076802588952e+01
 Spin= Alpha
 Occup=  1.00000000000000000e+00
  1 -1.38899974171496508e-04
  2 -1.89143230147477832e-04
  3 -7.20127897803937950e-05
  4 -3.03550992175476400e-05
  5  1.27848902342998240e-04
  6  4.07022970236356203e-04
  7 -2.90206007154541871e-04
  8 -1.34646629910021995e-04
  9  6.80503078143203008e-04
 10  1.39546189758264403e-03
 11 -6.79121708271569627e-04
 12 -1.19212069384216942e-04
 13  3.85154361797586592e-04
 14  2.09220931080709093e-04
 15 -2.91081457681397935e-04
 16 -9.76643724773605925e-05
 17  4.98802513197251391e-05
 18  5.70907578161496937e-05
 19  2.30495713558833207e-03
 20 -2.96200912746187540e-04
 21 -1.29558047088085244e-04
 22  6.61790380937884499e-05
 23  1.02425450991819054e-05
 24  5.08192516271313178e-05
 25  1.31079007444240763e-04
 26  6.58830713571203732e-05
 27  4.67480440160735622e-05
 28 -5.92645936665817013e-06
 29 -3.05692744357368782e-06
 30 -1.53004292291952946e-06
 31  8.11803536738338230e-05
 32  5.44874778645892502e-05
 33  1.04224251298377117e-05
 34  5.16621586410139955e-05
 35 -5.99249369299896810e-04
 36  3.61399631339674591e-04
 37  6.65916208173720380e-05
 38 -4.16213134743358907e-04
 39  3.96017917483517450e-05
 40  3.55224931986190668e-05
 41 -4.88253871055877522e-06
 42 -2.53439766516945230e-05
 43 -1.03538094528563654e-05
 44 -2.24227395776012027e-03
 45  2.19007184806570938e-04
 46  1.19288468816764883e-04
 47 -3.65241021745168907e-04
 48  1.64708739604081188e-05
 49 -9.35032537024997932e-05
 50 -9.49038026786494277e-05
 51 -5.80348592038070540e-05
 52 -4.61649398909817624e-05
 53 -9.67554742617774714e-06
 54 -3.95867019586564256e-06
 55  5.71136976528407069e-06
 56 -3.13685536703968583e-05
 57  5.38593565409263542e-05
 58  2.04724918480184562e-05
 59 -4.25086234271741562e-05
 60  4.57034531621637271e-04
 61  1.40042810773545630e-04
 62  3.37598633839579154e-06
 63  1.73149277646289144e-04
 64 -1.94394805337030132e-05
 65  2.75483438262750897e-06
 66  4.67168186758525473e-07
 67  2.23048091914075570e-05
 68  2.95246458168268892e-06
 69  1.99325989296014836e-03
 70  3.35362831478542504e-04
 71 -2.14288263083580940e-05
 72  3.50263493969132488e-04
 73 -2.63522567474621014e-06
 74  2.33466960564996356e-05
 75  2.21228093055137851e-05
 76 -3.71872331479644304e-05
 77 -2.91079302332758501e-05
 78  5.22502669125745873e-07
 79 -2.10243870131460378e-06
 80  7.26683922492748664e-08
 81 -3.34179032207913813e-05
 82 -1.95671590751582524e-05
 83  2.10192447608668620e-06
 84 -1.98111782764276751e-05
 85 -8.17764510579305735e-05
 86  6.63198056031429105e-05
 87  3.46616064721611591e-05
 88  9.01597330929419577e-05
 89  1.12376344560459289e-05
 90 -2.89331961155975705e-06
 91  9.88530707933614247e-06
 92  1.00875127275338617e-05
 93 -1.23891170381888425e-05
 94 -2.80551741038571239e-03
 95 -4.28843593409172102e-04
 96 -2.30014440093749370e-05
 97 -4.14994011581320882e-04
 98 -4.40636489183525334e-07
 99  2.31116260349818358e-05
100  1.08111263176138551e-04
101  3.80801892094151037e-03
102  3.10120777251054721e-03
103  1.19097976199801294e-04
104 -4.70989911162283901e-05
105  1.09839462040311779e-05
106  2.45212141589647040e-04
107  2.65077030277618747e-04
108 -5.38130299788021230e-05
109 -4.18436536088655228e-05
110  8.38039820290318585e-04
111  3.90236562838516756e-04
112 -2.45254265863620324e-04
113  1.58742082512828593e-04
114 -4.71333307817335310e-05
115 -4.25196058055441544e-05
116 -1.31523734359404153e-06
117  7.88541124177151117e-05
118 -3.82833564043158492e-05
119  3.42659648490910166e-03
120  9.88554503063422511e-05
121 -3.06449349208490662e-04
122 -5.97390733410532661e-04
123 -6.57792852986936390e-06
124  1.37061213549753738e-05
125 -4.49492250294620640e-05
126  4.23682447099788260e-06
127 -7.45675452332347609e-05
128 -1.56159523022638742e-04
129  5.63446900802531458e-01
130  4.66574636281220922e-01
131  4.66140716216616321e-04
132  3.06148696399583789e-04
133 -1.17561186873002912e-03
134  4.17233105058169209e-03
135 -3.89502652195979852e-04
136 -2.81826040432264519e-04
137  1.04870415820664800e-03
138 -3.31975835065236469e-03
139  3.06441356202545394e-04
140 -4.21984275540784705e-05
141  6.15030558703496850e-05
142 -3.00882514884298266e-04
143  3.52422824617729428e-04
144  1.84237837126973309e-04
145 -1.13831337809166085e-04
146 -2.22841606738150989e-05
147 -3.06907092868106404e-03
148  8.88589370248381148e-05
149 -6.66470826843153279e-05
150  3.94073215283969680e-04
151  3.12178124872690616e-04
152  1.89982170638276971e-04
153  7.19026491512797582e-04
154  3.08463618362733770e-04
155  1.38856195657451314e-04
156  7.20358372354139103e-04
 Sym= A
 Ene= -1.14301078238920670e+01
 Spin= Alpha
 Occup=  1.00000000000000000e+00
  1 -5.64269815122766293e-06
  2  1.07470456743210899e-06
  3 -7.58813920256174541e-06
  4  7.55071689304195521e-09
  5 -2.26211733601169563e-07
  6 -4.07245755676414992e-05
  7  1.55159046170983618e-05
  8 -2.58072875523407960e-06
  9  1.33035706075517816e-05
 10  4.45295847439203404e-04
 11 -3.03217431850602527e-04
 12 -4.42969856267917079e-05
 13 -8.82399269461584955e-05
 14 -9.24035931610186237e-06
 15  1.27702700335610306e-06
 16  9.15459641746727505e-07
 17 -2.06596459882989949e-07
 18  3.03626923219961034e-06
 19 -1.54351396278722629e-03
 20  1.76528611549533766e-04
 21 -1.07393016765681501e-04
 22  1.24327127964019425e-03
 23 -8.42073470161202545e-06
 24  4.04889878766484065e-05
 25  8.08462188183214453e-05
 26  3.97609326867841761e-04
 27  3.46129262949524709e-04
 28  9.68878530859833301e-06
 29  5.27856681096455183e-07
 30  6.88712704672040041e-06
 31 -5.17740601858794966e-05
 32  1.11732556698921587e-04
 33  1.13868056964247594e-05
 34 -1.82263472190907712e-05
 35 -5.19622627662918784e-04
 36  7.12098975983119502e-05
 37  4.33351772767869841e-05
 38 -2.74412943418254082e-04
 39  2.75229584397383022e-05
 40  3.85489072089095688e-05
 41  6.17152319083569516e-06
 42 -2.03734848222428817e-05
 43 -1.26510405967071793e-06
 44  3.37761501697344830e-03
 45  5.30765261170341096e-04
 46 -1.81965309530947272e-06
 47  8.08573658633208775e-04
 48  2.09616356807236364e-06
 49 -3.04424853072586615e-05
 50 -1.09322318449034023e-04
 51 -8.92104778953602684e-02
 52 -7.38415160621840316e-02
 53  2.69750382116303000e-05
 54 -2.40834867170133008e-05
 55 -2.36600193350844617e-04
 56 -1.07252353037300412e-03
 57  7.90690144170817571e-05
 58  1.67376677755055351e-05
 59  1.43030873018955458e-05
 60  1.00635066327117565e-03
 61  9.46222477398486107e-06
 62 -8.00151491867086669e-06
 63  2.22624260420952369e-04
 64 -2.15811382940614939e-05
 65  7.21165514901501086e-05
 66  1.75562702449456801e-05
 67  1.15548855353433860e-04
 68  3.90963398368323738e-05
 69 -1.57318854087542788e-03
 70  8.26539484870852557e-05
 71  4.54641061565430461e-05
 72 -6.88332227478572595e-04
 73 -7.18198121546442884e-05
 74  1.72215330451860005e-05
 75 -7.09327610587525223e-05
 76 -5.56061054619950479e-01
 77 -4.60522729904292605e-01
 78 -1.14439970956306899e-04
 79 -4.76619399673228119e-05
 80 -1.33299668269155940e-04
 81 -3.83574108672554617e-03
 82 -9.37680674304006736e-05
 83  4.97567864397698969e-05
 84  5.01703414006802735e-04
 85 -9.17608814128323717e-05
 86 -1.83149191468085816e-04
 87  1.50680677599955130e-05
 88  1.03994812378040280e-05
 89 -4.14639071563674107e-04
 90  3.04170575373208046e-04
 91 -1.43410196814551836e-04
 92 -6.09036911350924496e-04
 93 -9.28131768337830433e-05
 94  1.74398677438165222e-03
 95 -1.56204986728951921e-04
 96 -1.58550521724189463e-04
 97  5.74334769831702231e-05
 98 -4.21995753457541896e-04
 99  2.28837703433436681e-04
100 -4.84497374071422133e-04
101 -1.49919085912642511e-02
102 -1.23419454789841163e-02
103  5.02355060921350129e-05
104  3.86073766906694252e-05
105  1.25624940509877297e-04
106 -4.86466222814948635e-04
107  1.58829078106714218e-04
108  4.33570351755107434e-05
109  2.78255509583798754e-04
110  5.65142869856642043e-04
111  2.45758642048467066e-05
112 -1.54680447937731940e-04
113 -1.02674880243789547e-04
114 -1.04970528046582432e-04
115 -9.62749501201727711e-05
116 -3.64230717849687232e-05
117  5.69113401625057590e-05
118 -2.46200275470009807e-05
119 -1.81390911540788295e-03
120 -3.56468546965084908e-05
121  3.95255209342154298e-04
122  1.31509294874654050e-04
123  8.00900622955722691e-06
124 -3.61851786457077510e-05
125  9.27333672540879344e-05
126 -6.42593818123868888e-06
127 -1.25206293602654850e-04
128  1.72373988161411609e-04
129  5.48079470734286046e-05
130  5.06041644252230898e-05
131 -1.21029376356209878e-05
132  8.52718456774118336e-06
133 -4.74471238523252749e-06
134  1.32798771729423490e-05
135  5.72399357437121289e-05
136 -3.98830402684607367e-05
137  1.47155496954842271e-05
138 -4.11414673807347783e-04
139  1.31472937471231467e-04
140  7.12002687992779166e-05
141  6.20069265000648353e-05
142  2.14628855506516227e-05
143 -5.48593566478949914e-06
144  7.73732502330721572e-06
145 -1.52698892570969671e-05
146  2.70408528409577145e-05
147 -4.02461160393969653e-04
148 -7.08473547329774864e-04
149 -1.88990036047829020e-04
150  2.41486304606527242e-04
151 -1.15395354757064639e-05
152  9.08621955878289851e-05
153  2.54438417853383377e-05
154 -4.46099523407093690e-06
155 -1.48552191189476272e-05
156  7.21553925606223037e-05
 Sym= A
 Ene= -1.14241336291009041e+01
 Spin= Alpha
 Occup=  1.00000000000000000e+00
  1 -1.08035176898084134e-05
  2  3.27205818057007255e-06
  3 -6.09802828031368085e-06
  4  5.03916768736848068e-06
  5 -1.16709428505662997e-05
  6 -9.24119417075335199e-05
  7  2.97441355138718374e-05
  8 -3.01324384869712187e-05
  9  9.10372936898588662e-05
 10  8.24068810723374676e-04
 11 -4.47683954144687186e-04
 12 -2.40280490046798046e-05
 13 -7.57827819748934755e-05
 14 -6.44178528335884040e-06
 15 -4.95789532712107939e-05
 16 -1.04396954453354937e-06
 17 -7.63328084764887459e-06
 18  1.12715876418019024e-05
 19 -2.18350220724498932e-03
 20  2.50331022013599344e-04
 21 -1.56108145476466069e-04
 22  1.05954908236776855e-03
 23 -9.28895756627059816e-06
 24  3.55672254928336950e-05
 25  9.17162488139386102e-05
 26  2.35007868332016718e-03
 27  2.03315535857072479e-03
 28  1.46234057328023916e-04
 29  2.03401556353748356e-05
 30 -1.21849769127513372e-05
 31 -3.31183949097095380e-04
 32  4.98032490788073191e-04
 33  6.44787791647924885e-05
 34  7.76470071026665693e-05
 35 -9.09827892103667727e-04
 36  2.35205370460205693e-04
 37  7.21246077682626810e-05
 38 -6.34211486097313528e-04
 39  1.85687830208728098e-04
 40  4.79224040188146395e-05
 41  8.29359781235519288e-06
 42 -1.23374649799360981e-04
 43 -3.10476578594042157e-05
 44  3.76334882952241920e-03
 45  4.53235957685661696e-04
 46  5.99603410501947063e-05
 47  8.98427963117971371e-04
 48  1.08923258037856900e-06
 49 -9.01166459172918503e-05
 50 -2.08331968417140798e-04
 51 -5.56017586631013638e-01
 52 -4.60556218396468542e-01
 53 -7.31295605099879678e-04
 54 -7.54353279040703364e-05
 55  9.37932788156517608e-05
 56 -5.26286637578689872e-03
 57  8.94160354591221041e-04
 58  2.65578816706003923e-05
 59 -7.32315556404183345e-04
 60  1.71969197278773185e-03
 61  4.66214787287006223e-05
 62  4.29486102577346750e-05
 63  5.78423224705633442e-04
 64 -4.28253160037854192e-04
 65  3.62336923701193057e-04
 66 -4.38158955091993261e-05
 67 -5.57740111733218621e-05
 68  4.06749415991909083e-05
 69 -3.50926155918002440e-03
 70  4.72256376910550201e-05
 71 -7.31883054611440139e-05
 72 -1.23884106630328737e-03
 73 -4.10135463319727855e-04
 74  2.04880143038553716e-04
 75 -3.06611986026841755e-04
 76  8.94238837470721359e-02
 77  7.40789050842167729e-02
 78 -1.48567696249753438e-04
 79  2.65116192699189011e-05
 80  3.20908940679231515e-04
 81  5.27284457218138284e-04
 82  2.13651580348450724e-04
 83 -3.08183897026641159e-05
 84 -5.18426310176935785e-04
 85 -1.75752667378123326e-04
 86 -3.14818394810533462e-04
 87  2.08227277181685364e-05
 88  1.82498598511259230e-04
 89  2.06691141319382903e-04