[Molden Format]
[Atoms] (AU)
C    1    6         2.688203947216       0.126267316038      -0.211284584910
H    2    1         4.728095907479       0.359456870713      -0.218011119477
C    3    6         1.369782617967       0.204435981782      -2.374855666231
H    4    1         2.318345438850       0.530982748944      -4.165937681460
C    5    6        -1.369782617967      -0.204435981782      -2.374855666231
H    6    1        -2.318345438850      -0.530982748944      -4.165937681460
C    7    6        -2.688203947216      -0.126267316038      -0.211284584910
H    8    1        -4.728095907290      -0.359456870902      -0.218011119477
C    9    6        -1.377448045575       0.458746757807       2.255586404767
H   10    1        -1.428727068278       2.518961490447       2.552818698465
H   11    1        -2.401900037590      -0.368832778254       3.849461186775
C   12    6         1.377448045575      -0.458746757807       2.255586404767
H   13    1         1.428727068278      -2.518961490069       2.552818698465
H   14    1         2.401900037401       0.368832778065       3.849461186397
[GTO]
  1 0
 s    6  1.00
     4563.2400000000         0.0019666500
      682.0240000000         0.0152306000
      154.9730000000         0.0761269000
       44.4553000000         0.2608010000
       13.0290000000         0.6164620000
        1.8277300000         0.2210060000
 s    3  1.00
       20.9642000000         0.1146600000
        4.8033100000         0.9199990000
        1.4593300000        -0.0030306800
 p    3  1.00
       20.9642000000         0.0402487000
        4.8033100000         0.2375940000
        1.4593300000         0.8158540000
 s    1  1.00
        0.4834560000         1.0000000000
 p    1  1.00
        0.4834560000         1.0000000000
 s    1  1.00
        0.1455850000         1.0000000000
 p    1  1.00
        0.1455850000         1.0000000000
 d    1  1.00
        0.6260000000         1.0000000000
 s    1  1.00
        0.0438000000         1.0000000000
 p    1  1.00
        0.0438000000         1.0000000000

  2 0
 s    3  1.00
       33.8650000000         0.0254938000
        5.0947900000         0.1903730000
        1.1587900000         0.8521610000
 s    1  1.00
        0.3258400000         1.0000000000
 s    1  1.00
        0.1027410000         1.0000000000

  3 0
 s    6  1.00
     4563.2400000000         0.0019666500
      682.0240000000         0.0152306000
      154.9730000000         0.0761269000
       44.4553000000         0.2608010000
       13.0290000000         0.6164620000
        1.8277300000         0.2210060000
 s    3  1.00
       20.9642000000         0.1146600000
        4.8033100000         0.9199990000
        1.4593300000        -0.0030306800
 p    3  1.00
       20.9642000000         0.0402487000
        4.8033100000         0.2375940000
        1.4593300000         0.8158540000
 s    1  1.00
        0.4834560000         1.0000000000
 p    1  1.00
        0.4834560000         1.0000000000
 s    1  1.00
        0.1455850000         1.0000000000
 p    1  1.00
        0.1455850000         1.0000000000
 d    1  1.00
        0.6260000000         1.0000000000
 s    1  1.00
        0.0438000000         1.0000000000
 p    1  1.00
        0.0438000000         1.0000000000

  4 0
 s    3  1.00
       33.8650000000         0.0254938000
        5.0947900000         0.1903730000
        1.1587900000         0.8521610000
 s    1  1.00
        0.3258400000         1.0000000000
 s    1  1.00
        0.1027410000         1.0000000000

  5 0
 s    6  1.00
     4563.2400000000         0.0019666500
      682.0240000000         0.0152306000
      154.9730000000         0.0761269000
       44.4553000000         0.2608010000
       13.0290000000         0.6164620000
        1.8277300000         0.2210060000
 s    3  1.00
       20.9642000000         0.1146600000
        4.8033100000         0.9199990000
        1.4593300000        -0.0030306800
 p    3  1.00
       20.9642000000         0.0402487000
        4.8033100000         0.2375940000
        1.4593300000         0.8158540000
 s    1  1.00
        0.4834560000         1.0000000000
 p    1  1.00
        0.4834560000         1.0000000000
 s    1  1.00
        0.1455850000         1.0000000000
 p    1  1.00
        0.1455850000         1.0000000000
 d    1  1.00
        0.6260000000         1.0000000000
 s    1  1.00
        0.0438000000         1.0000000000
 p    1  1.00
        0.0438000000         1.0000000000

  6 0
 s    3  1.00
       33.8650000000         0.0254938000
        5.0947900000         0.1903730000
        1.1587900000         0.8521610000
 s    1  1.00
        0.3258400000         1.0000000000
 s    1  1.00
        0.1027410000         1.0000000000

  7 0
 s    6  1.00
     4563.2400000000         0.0019666500
      682.0240000000         0.0152306000
      154.9730000000         0.0761269000
       44.4553000000         0.2608010000
       13.0290000000         0.6164620000
        1.8277300000         0.2210060000
 s    3  1.00
       20.9642000000         0.1146600000
        4.8033100000         0.9199990000
        1.4593300000        -0.0030306800
 p    3  1.00
       20.9642000000         0.0402487000
        4.8033100000         0.2375940000
        1.4593300000         0.8158540000
 s    1  1.00
        0.4834560000         1.0000000000
 p    1  1.00
        0.4834560000         1.0000000000
 s    1  1.00
        0.1455850000         1.0000000000
 p    1  1.00
        0.1455850000         1.0000000000
 d    1  1.00
        0.6260000000         1.0000000000
 s    1  1.00
        0.0438000000         1.0000000000
 p    1  1.00
        0.0438000000         1.0000000000

  8 0
 s    3  1.00
       33.8650000000         0.0254938000
        5.0947900000         0.1903730000
        1.1587900000         0.8521610000
 s    1  1.00
        0.3258400000         1.0000000000
 s    1  1.00
        0.1027410000         1.0000000000

  9 0
 s    6  1.00
     4563.2400000000         0.0019666500
      682.0240000000         0.0152306000
      154.9730000000         0.0761269000
       44.4553000000         0.2608010000
       13.0290000000         0.6164620000
        1.8277300000         0.2210060000
 s    3  1.00
       20.9642000000         0.1146600000
        4.8033100000         0.9199990000
        1.4593300000        -0.0030306800
 p    3  1.00
       20.9642000000         0.0402487000
        4.8033100000         0.2375940000
        1.4593300000         0.8158540000
 s    1  1.00
        0.4834560000         1.0000000000
 p    1  1.00
        0.4834560000         1.0000000000
 s    1  1.00
        0.1455850000         1.0000000000
 p    1  1.00
        0.1455850000         1.0000000000
 d    1  1.00
        0.6260000000         1.0000000000
 s    1  1.00
        0.0438000000         1.0000000000
 p    1  1.00
        0.0438000000         1.0000000000

  10 0
 s    3  1.00
       33.8650000000         0.0254938000
        5.0947900000         0.1903730000
        1.1587900000         0.8521610000
 s    1  1.00
        0.3258400000         1.0000000000
 s    1  1.00
        0.1027410000         1.0000000000

  11 0
 s    3  1.00
       33.8650000000         0.0254938000
        5.0947900000         0.1903730000
        1.1587900000         0.8521610000
 s    1  1.00
        0.3258400000         1.0000000000
 s    1  1.00
        0.1027410000         1.0000000000

  12 0
 s    6  1.00
     4563.2400000000         0.0019666500
      682.0240000000         0.0152306000
      154.9730000000         0.0761269000
       44.4553000000         0.2608010000
       13.0290000000         0.6164620000
        1.8277300000         0.2210060000
 s    3  1.00
       20.9642000000         0.1146600000
        4.8033100000         0.9199990000
        1.4593300000        -0.0030306800
 p    3  1.00
       20.9642000000         0.0402487000
        4.8033100000         0.2375940000
        1.4593300000         0.8158540000
 s    1  1.00
        0.4834560000         1.0000000000
 p    1  1.00
        0.4834560000         1.0000000000
 s    1  1.00
        0.1455850000         1.0000000000
 p    1  1.00
        0.1455850000         1.0000000000
 d    1  1.00
        0.6260000000         1.0000000000
 s    1  1.00
        0.0438000000         1.0000000000
 p    1  1.00
        0.0438000000         1.0000000000

  13 0
 s    3  1.00
       33.8650000000         0.0254938000
        5.0947900000         0.1903730000
        1.1587900000         0.8521610000
 s    1  1.00
        0.3258400000         1.0000000000
 s    1  1.00
        0.1027410000         1.0000000000

  14 0
 s    3  1.00
       33.8650000000         0.0254938000
        5.0947900000         0.1903730000
        1.1587900000         0.8521610000
 s    1  1.00
        0.3258400000         1.0000000000
 s    1  1.00
        0.1027410000         1.0000000000

[5D]
[9G]

[MO]
 Sym= A
 Ene= -1.25564911471736593e+01
 Spin= Alpha
 Occup=  1.00000000000000000e+00
  1 -2.85074158108485250e-04
  2  1.33961370339304576e-03
  3 -1.00717702829767925e-03
  4  1.29352119957095558e-04
  5 -2.11838919612108208e-03
  6 -4.90503684712678342e-03
  7  6.59906725730676196e-03
  8 -6.97192939601616146e-04
  9  1.29998862155756411e-02
 10  6.99694342783551380e-03
 11 -8.58736184627819331e-03
 12 -2.66930822752344790e-04
 13 -3.67916325390008287e-03
 14 -4.24648491311524403e-03
 15 -6.47674965955594845e-03
 16  1.42035020972255472e-04
 17 -1.44770373362787747e-03
 18  4.20968470432216482e-04
 19 -4.79738311041782578e-02
 20  5.82283471224826280e-03
 21 -6.12364302808220237e-04
 22  5.42868253353074367e-03
 23 -8.80521337276517148e-04
 24  5.34747940148065214e-04
 25  5.07365564034104218e-03
 26 -6.22470191384105864e-01
 27 -4.20661902268569088e-01
 28  2.53446182580055069e-06
 29  2.14939535641494440e-04
 30 -1.86049191300294097e-03
 31  4.93376804964697907e-02
 32  1.35455629423375913e-03
 33 -1.13373310592771804e-03
 34  1.11332758920580383e-02
 35 -4.46901015190896908e-02
 36  6.48158073457092213e-03
 37  1.87841724500762471e-03
 38 -1.17117778157525398e-02
 39  1.92527664611376759e-03
 40  4.79786626942166599e-03
 41 -1.50610077988929709e-04
 42  3.01423606335359754e-03
 43  3.37717107370757053e-04
 44  8.00451417170764679e-02
 45 -7.13401797413859562e-03
 46 -2.72153443312144394e-03
 47  1.72247129943992744e-02
 48  3.63693613332478286e-04
 49 -2.44013455233325904e-03
 50  2.60660259713143324e-03
 51 -5.96082183856555973e-05
 52  3.87238918742749177e-04
 53  1.83096375860959410e-03
 54  2.16664031839555824e-04
 55 -2.76480989622892974e-04
 56 -4.18302670477145599e-04
 57 -7.04079366465225950e-03
 58 -7.35692156157947389e-04
 59  1.87875385470376972e-03
 60  1.37482045423119176e-02
 61  8.48220111545890457e-03
 62  1.55409218529983079e-03
 63  7.74299576239807687e-03
 64  2.83513912689050589e-03
 65 -6.87290323591943511e-04
 66  2.62170245386870375e-04
 67 -3.05044104860382071e-03
 68 -1.14290595745029314e-03
 69 -5.67112319439615695e-02
 70 -4.46238806505464426e-03
 71  1.41786966609257128e-04
 72 -6.38919599346637716e-03
 73 -5.83741585865881775e-04
 74  1.05384485868149588e-03
 75  4.95073282960899457e-03
 76 -5.12065514880509766e-05
 77  2.66015175768137871e-04
 78  1.49443729614127387e-04
 79  2.91946626514541438e-05
 80 -3.20670828413152425e-04
 81 -1.33309063426341381e-03
 82 -1.76589401264867643e-03
 83 -9.98045983832607155e-05
 84  2.63445774060675018e-03
 85 -9.68795733271316482e-03
 86 -4.41495104641965921e-03
 87 -5.40919481427775415e-04
 88 -1.47282667663127791e-03
 89 -4.98400630452730249e-04
 90  1.37723645233240569e-03
 91  1.15716233611833005e-04
 92  7.41077534035000689e-05
 93  1.40846606039805416e-04
 94  1.56720858063685471e-02
 95  3.56523586810280919e-03
 96 -1.15831533172317935e-03
 97 -7.86550616522543357e-03
 98 -1.93679075678888842e-04
 99 -6.21787879936025901e-04
100  8.63013042917490890e-04
101 -3.40934355611922368e-05
102  2.17146747386695214e-04
103  2.02124464145775442e-05
104 -6.00477640596321422e-05
105 -4.58386404097225908e-05
106 -1.65065081662409303e-03
107 -2.76457164884831780e-04
108  3.34136256350819384e-04
109  5.29898998169782941e-04
110  9.02355120989081945e-03
111  1.46773916350945903e-03
112 -3.89057416094121234e-04
113 -2.60295501391909602e-03
114  5.80696198598410772e-05
115 -2.86971799457308256e-04
116 -3.87855361023328100e-05
117 -1.97085312643218329e-05
118  9.25108623959477382e-05
119 -1.58082423226379859e-02
120 -8.55510908095085884e-03
121 -4.08702776393120433e-06
122  4.90272048069716757e-04
123  2.19009573175048700e-04
124 -1.66274135854004696e-03
125  1.21203461518147701e-03
126 -5.45543436169056945e-05
127 -5.76710956290729573e-04
128  8.55696909876894722e-04
129 -4.30740994857890539e-05
130  2.60657887263536969e-04
131  2.20707927130233642e-04
132  3.13410078882177316e-05
133 -3.72383838516485036e-04
134 -9.08491846119009803e-04
135 -1.02610291877538551e-03
136 -3.27868840277100164e-04
137  2.18995568530722107e-03
138 -5.45182997534701414e-03
139  2.01666151854995286e-03
140 -2.09698116180532298e-03
141  4.86638208192816948e-04
142 -8.06232314696053221e-04
143  1.07654157405676272e-03
144  4.62180804532519893e-04
145  1.92420529416020955e-04
146 -4.28180294883247551e-05
147  2.50910343901855903e-02
148 -4.18325312833484151e-03
149  3.63786840521984926e-03
150 -1.50581749048542073e-03
151  1.26962043819426544e-04
152 -5.91665780511795394e-04
153 -1.27215405453982204e-03
154 -3.54444934459232849e-04
155  5.95007869367791451e-04
156 -4.89619483612062169e-05
 Sym= A
 Ene= -1.04775881882311630e+01
 Spin= Alpha
 Occup=  1.00000000000000000e+00
  1 -5.63023657128534860e-01
  2 -4.63457903916909442e-01
  3 -5.29855969855918423e-05
  4 -1.46328034788314440e-04
  5  3.59581038666529273e-04
  6 -1.78931782262229597e-02
  7  2.57914706145481428e-03
  8  1.70056750484662912e-04
  9  2.27333461304837434e-03
 10  1.31979766634432484e-02
 11 -3.08365580598819744e-03
 12 -6.80089491762947570e-04
 13  1.02648639221512755e-04
 14 -1.58365990672003462e-03
 15 -1.25554711497716091e-03
 16  2.50353829454289304e-04
 17 -6.68634007733121200e-04
 18 -4.17956037577199484e-05
 19 -1.62472406849713084e-02
 20  4.49226436953960827e-03
 21  1.61258596872914566e-03
 22  1.11448739891340637e-03
 23 -2.57237382432979223e-04
 24  8.45478293180439004e-04
 25 -1.58447850625445703e-03
 26  2.34189993814698630e-04
 27 -2.33687000037016614e-04
 28 -5.99249171204045672e-04
 29  1.64396140550222600e-05
 30 -7.72511109466830271e-04
 31  1.30830876592636616e-03
 32  2.97939763289911935e-03
 33 -7.66904770923597178e-05
 34  3.86094912884200284e-03
 35 -1.00922841805548046e-03
 36 -6.17775542955881630e-05
 37  4.70243993247341434e-04
 38 -2.78862855338112871e-03
 39  1.63473812639164059e-03
 40  1.94141848529403574e-03
 41 -9.02239937087202559e-05
 42  2.61705113414573078e-04
 43 -1.76040767257383199e-04
 44  9.12207571121589900e-03
 45  9.75819841825844659e-04
 46 -6.88337946256976766e-04
 47  3.43326286194388581e-04
 48  2.70266029290648429e-04
 49 -2.39245090244552354e-04
 50 -1.57163077450830219e-03
 51  5.67369939995760492e-05
 52 -3.06176537903766495e-05
 53 -1.96481853018347314e-04
 54 -2.70805061549209631e-05
 55  7.60301127865489691e-05
 56  3.26286329537428554e-04
 57  1.24771718538656479e-03
 58  1.50821297664595322e-04
 59 -3.57175991784365186e-04
 60  1.11486096120471865e-05
 61 -3.67206572671456826e-04
 62 -1.77341180503775360e-04
 63  1.41687969741576577e-04
 64 -5.77710779881165015e-04
 65  1.55514431856981127e-04
 66  2.75679234081693652e-05
 67  3.23316427756584147e-04
 68  1.10386050850948056e-04
 69  1.46826790049964153e-02
 70 -2.98337039681622045e-03
 71 -5.07404815112146866e-06
 72  3.44309968446579158e-03
 73  7.60531301252551469e-05
 74  1.03298473239994351e-04
 75 -6.96406287483225268e-04
 76  4.16471364569625198e-05
 77 -3.37730466430775263e-05
 78 -1.95147909328237688e-05
 79 -1.90597047706262199e-06
 80  3.04229734024657934e-05
 81  3.32124986017602250e-04
 82  3.24230741500628318e-04
 83 -2.68623188574978461e-07
 84 -3.70774175392664732e-04
 85  2.16162250309050500e-04
 86  3.87082367131499103e-04
 87  2.52699901482774172e-04
 88 -1.25610245072084664e-05
 89  9.17746652509169951e-05
 90 -2.04254040959047663e-04
 91  4.93824683568993138e-05
 92 -1.97194661058481375e-05
 93 -2.74152359885035605e-06
 94 -6.28299285231976104e-03
 95 -9.64491674478744278e-04
 96  6.93694667421477910e-04
 97  6.26009512946840759e-03
 98  3.15245913959207857e-05
 99  1.55060812803136235e-04
100 -1.22966508432909857e-04
101  3.11168491078579304e-05
102 -3.58790554876545914e-05
103 -5.94918788547499242e-05
104 -6.06040434854910999e-06
105 -1.44941959211981346e-05
106  3.92939225106297345e-04
107  3.42183168134890369e-04
108 -2.02158351426696281e-05
109 -3.86120452062953677e-05
110 -6.40018841896721510e-04
111 -6.49316786774538357e-04
112 -8.45501129321521178e-04
113  3.69656265481414737e-04
114 -1.06595897789901346e-04
115  9.98142746026718631e-05
116  3.73650256321539774e-05
117  8.08583065193461368e-05
118 -5.50968161981373451e-05
119  9.23176267998945571e-04
120  4.68140403233433932e-03
121  5.15739710061596411e-04
122  1.80722390286527533e-03
123 -9.67377699506683728e-05
124  6.48376804278183319e-04
125  1.03255925075909944e-04
126  8.17875212389942763e-05
127 -1.84081282694732696e-04
128 -4.27760545346878344e-04
129 -6.99921734497949925e-04
130 -6.57525324519381803e-04
131 -2.52534142215936406e-04
132 -1.00020658684599805e-04
133  4.12813199900389583e-04
134 -2.90101959768959816e-05
135  6.36277239453146527e-04
136  2.20008053081195037e-04
137 -9.67821334857368290e-04
138 -2.10430850745370280e-03
139 -3.45932141802325491e-04
140  3.56289843301859038e-04
141  1.54175623646157561e-03
142  5.99284889360321123e-04
143 -6.55679662319929419e-04
144 -3.00821185588830706e-04
145  2.43656854621054426e-04
146  2.31309218927178378e-04
147 -2.69327482837265807e-03
148  2.13423083276656836e-03
149 -1.92626096982561885e-03
150 -2.05629963666766882e-03
151  1.70100658939958141e-04
152  3.20064815165678452e-04
153  1.03124773242689209e-04
154  1.50847733647432072e-04
155 -1.45774706937275799e-04
156  3.42120878095500077e-04
 Sym= A
 Ene= -1.04011039671307337e+01
 Spin= Alpha
 Occup=  1.00000000000000000e+00
  1  3.96952738443490102e-05
  2  1.10504573667929604e-04
  3 -4.77121796066304782e-05
  4 -1.41993609612026993e-05
  5 -8.97488674559399194e-05
  6 -3.09497947042166471e-04
  7  5.12333944465007737e-04
  8  5.18070738145370299e-05
  9  7.21471558961760888e-04
 10 -3.61812924685229976e-03
 11  1.76160516906082921e-03
 12  1.99638472391619232e-04
 13 -3.63021341077203366e-04
 14 -1.39687316078011413e-04
 15 -3.77950144346736547e-04
 16 -3.24517886537076453e-05
 17  1.69197584242005801e-05
 18  2.95088365858208405e-05
 19  7.58853390428707725e-03
 20 -1.40415223356156840e-03
 21  5.17402903014937488e-04
 22 -3.54521418065673099e-03
 23 -4.59371745214607433e-05
 24 -2.39859654829243491e-04
 25  1.55572788478579771e-04
 26 -7.34797515657345117e-05
 27  6.72102195934140535e-06
 28 -6.25095752419187601e-04
 29 -7.61353709989257422e-05
 30 -7.74826129797579366e-05
 31  8.37330949956922811e-05
 32  1.74438850461644903e-03
 33  1.68552889364632891e-04
 34  5.15735442508852933e-04
 35  4.72439094807063434e-03
 36 -2.64490946800534452e-03
 37 -5.20853363402012958e-04
 38  2.86968907903705937e-03
 39  7.25479348926827872e-04
 40  1.61302763916602469e-04
 41 -9.10539624598921227e-05
 42 -7.95828088767763049e-04
 43 -3.10238200369685477e-04
 44 -2.06463117999840795e-02
 45  5.54900528772852208e-04
 46 -1.30662359495613891e-04
 47 -3.11897452365267292e-03
 48 -1.72107102058864842e-04
 49  4.08241470279493892e-04
 50  1.66089960856984965e-03
 51  5.62876744066480250e-01
 52  4.63299457097819667e-01
 53  1.17753185931865584e-03
 54  9.27137161117540476e-05
 55 -5.46263095451909137e-04
 56  1.85472639293981049e-02
 57 -1.58927996597363580e-03
 58  2.41455278346296436e-04
 59  3.86332006711842188e-03
 60 -1.48346664194033695e-02
 61 -1.63292091368766128e-03
 62 -5.23895814222679105e-04
 63 -3.78538214726148849e-03
 64  1.03882532762615814e-03
 65 -1.74718568043664220e-03
 66  1.05787764832449661e-04
 67  1.01661035835354761e-03
 68  9.36969599615164927e-05
 69  2.65927906224335195e-02
 70  1.72359504894114678e-03
 71  8.17444308521181871e-04
 72  6.54349985853968329e-03
 73  2.99457911424185570e-04
 74 -1.00294476530980422e-03
 75  1.32982210631904518e-03
 76  8.71333876367462457e-03
 77  7.64410319016875679e-03
 78  3.93688732728937477e-04
 79 -5.06581041490796686e-05
 80 -8.19934413813516792e-04
 81 -1.29223010255721804e-03
 82 -2.22534194966870656e-03
 83  2.51159983558685870e-04
 84  4.47542863403280547e-03
 85  1.75339110552707794e-03
 86  2.61270253133214034e-03
 87  1.78190128173382721e-05
 88 -1.34708282228561578e-03
 89 -1.44089219675694346e-03
 90  2.15092276603806500e-03
 91 -5.85073505360524153e-05
 92 -5.04493758873088890e-04
 93  1.32872144626207763e-04
 94 -1.62981027719957434e-02
 95 -1.75774392841480378e-03
 96  3.75205016280026680e-04
 97  2.19816991753888366e-03
 98 -2.83087962217475899e-04
 99  1.34176654169937279e-04
100  1.69890742625413327e-03
101 -1.02406720259269648e-04
102  8.19346149521905645e-06
103 -7.96493691608960889e-05
104 -1.19977526126730517e-05
105 -1.28325462893691573e-04
106 -2.95252497972031474e-04
107  3.61342859481789407e-04
108  1.10416106085187694e-04
109  7.35680001158198920e-04
110 -1.65224490036331838e-03
111 -7.15296920925453440e-04
112  7.15102160683483241e-04
113  7.15582488938871440e-05
114 -2.85027326425068487e-04
115 -3.75635182063671354e-04
116 -1.59548223842231044e-04
117  5.58285966263625332e-05
118 -2.57623779359254836e-05
119  8.20082278430120555e-03
120  1.62133848735265818e-03
121 -1.33115869935194597e-03
122 -2.55949356431206055e-04
123  3.44852108586089472e-05
124 -2.11436200854336215e-04
125 -4.18390107419290352e-04
126 -1.18126960028330501e-04
127  2.07328186978053162e-04
128 -4.24813038556701262e-05
129 -1.95252743203383689e-04
130 -8.77362312370078283e-05
131 -1.46591902199640950e-05
132  1.77803062714820382e-05
133 -4.62201467623137409e-06
134 -5.49112740623703788e-04
135  1.35278024607914652e-04
136 -1.01632668387462394e-04
137  1.23620416079707024e-04
138  3.14464527073939461e-03
139 -5.56920085426767250e-04
140  1.12587502896542089e-04
141 -8.96794362206701609e-04
142  4.03734887695091608e-05
143  7.99340448231337003e-05
144  5.59236235396554317e-06
145 -1.48485599570634283e-05
146  3.33548266425655083e-05
147 -5.33864394013654642e-03
148  3.25289841921156319e-03
149  2.17801237013676694e-05
150  5.46880437761624322e-05
151  7.49091913127398307e-05
152 -5.75416124558310316e-04
153  4.12879138476806467e-04
154 -1.59765191096808129e-05
155 -1.86214756048103520e-04
156  2.91733057239628531e-04
 Sym= A
 Ene= -1.03815459929091336e+01
 Spin= Alpha
 Occup=  1.00000000000000000e+00
  1 -7.43114626540783787e-04
  2 -5.56458926796881553e-04
  3 -1.94783433156425707e-04
  4 -1.07717416378291762e-04
  5  6.04378484109373390e-04
  6 -1.02206036671144898e-04
  7  2.43528950739497888e-04
  8  2.98545259400945218e-04
  9 -2.06180057709600588e-03
 10  7.17954901913836138e-03
 11 -4.05694861593736741e-03
 12 -9.08952321835306866e-04
 13  3.49886096060677068e-03
 14 -3.96893475023575755e-04
 15  1.12090829759803464e-03
 16  3.07515480243214078e-04
 17  3.94935542286478010e-05
 18 -1.25568177078396381e-04
 19  1.88245036875446595e-02
 20 -3.77404439347666428e-03
 21 -8.36949869285353795e-04
 22 -2.47336401037233453e-03
 23 -1.77858387693794796e-04
 24  2.36908042021701388e-04
 25  1.19311086676481058e-03
 26 -1.67570771045421206e-05
 27  8.98865473806723369e-05
 28  9.57277442822208701e-05
 29 -2.13566618093588615e-05
 30  1.01364993427700183e-04
 31 -4.81289556447050959e-04
 32 -6.35608967725773502e-04
 33  1.28361780671656781e-04
 34 -1.01044715236272686e-03
 35 -3.35938805407636929e-03
 36  2.44023185823192277e-03
 37  2.54225521854761945e-04
 38 -1.79003222493735780e-03
 39 -3.07020229943336695e-04
 40 -4.11020290275027056e-04
 41 -4.13416277714180090e-05
 42  8.40666273931544146e-05
 43  1.12127580963495592e-04
 44 -2.53404388667059742e-02
 45  1.27400157801164839e-03
 46  1.12727671019130049e-03
 47 -3.73731222099410931e-03
 48 -2.72561535462907211e-05
 49 -6.05478239822054907e-04
 50  1.32330562211791636e-04
 51  1.89445095353167961e-04
 52  2.34591354939843119e-04
 53  4.72254411797804822e-05
 54 -2.46213843515245082e-05
 55  3.36286062571355011e-05
 56 -5.70338357758586197e-04
 57 -2.72148489040352427e-04
 58  8.02173425377331712e-05
 59 -2.66906860397256990e-04
 60  3.62572505040632256e-03
 61  1.59842448361175653e-03
 62  2.53179074212048531e-04
 63  2.00074725982266836e-03
 64  6.80716210733619485e-05
 65 -3.96218357447794244e-06
 66  3.55670418983082500e-06
 67  3.47252057636542879e-05
 68 -3.53733225652738028e-05
 69  1.03822499610648229e-02
 70  3.95271380411413992e-03
 71 -1.18058444654392818e-05
 72  1.39519335318603671e-03
 73 -9.01226072914910228e-05
 74  3.41833128770537465e-04
 75  7.78913177660900966e-04
 76 -5.02823632043363292e-04
 77 -3.47090979686538476e-04
 78  2.98018563077815133e-05
 79  9.62509894814761367e-06
 80  8.77473247839465889e-05
 81 -3.74142660655217162e-04
 82 -3.20298344007093267e-04
 83 -3.18453607405410943e-05
 84 -4.15614860494312979e-04
 85 -1.91347262144938787e-03
 86 -4.05473836388285343e-04
 87 -1.32696260078836578e-04
 88  4.55441677450366751e-04
 89 -1.72454276745952624e-04
 90 -1.27115710565852053e-04
 91 -3.08440446676004474e-06
 92  1.39006485064254663e-04
 93 -1.62673366781981393e-04
 94 -1.20443155412605085e-02
 95 -1.98371886606955612e-03
 96 -3.91102180522870385e-05
 97 -4.35343597794373566e-03
 98 -6.95635057294101433e-05
 99 -1.42274483356269560e-05
100  5.21015220113055493e-04
101  2.52400502189237394e-03
102  2.16944763817506457e-03
103  4.80839782603943830e-04
104 -1.61472059879004738e-04
105  5.82307312378069423e-05
106 -2.38302935068975832e-04
107 -1.10867505451511979e-03
108  3.69554511321382932e-04
109 -2.69691086055811094e-04
110  6.12658560498944866e-03
111  2.78828621168582388e-03
112 -1.32142266924313383e-03
113  1.82880143766212352e-04
114  4.80067799505908130e-04
115  1.05489709195062396e-04
116  6.20681394405627639e-05
117 -6.56282685403982162e-04
118  5.11327673337921775e-04
119  1.71715123549602902e-02
120 -1.07582973811136883e-03
121 -2.36595157587416805e-03
122 -2.81034722374650910e-03
123 -1.74182887850294336e-04
124 -3.22007165260347638e-04
125  3.72278897008274762e-04
126 -8.75915464539676289e-05
127 -5.51607385204415097e-04
128 -5.85783028957227226e-04
129  5.62913147967128102e-01
130  4.63546600454277591e-01
131  2.45004313398381195e-04
132 -5.72967575882287649e-05
133 -2.09867758772726645e-04
134  1.81200887012246924e-02
135 -4.76446521305685900e-04
136  5.28439361807536419e-04
137 -9.38672709758267120e-04
138 -2.38739957242213377e-02
139  1.23051436635527667e-03
140 -8.83756827332164555e-04
141  2.63893660410982611e-03
142  1.10484334076460920e-04
143 -3.82170037909921874e-04
144 -1.07981944318168415e-04
145  3.24435169314279427e-04
146 -5.86345483655760594e-05
147 -1.13567696273816562e-02
148  1.39883609110709006e-03
149  8.07773326757240751e-04
150  8.51902451750464703e-04
151 -1.35003623288046495e-04
152  1.19334037205040804e-03
153  3.90293883262736625e-03
154 -9.72612168075106409e-05
155  8.67567952681780330e-04
156  3.55204735344397636e-03
 Sym= A
 Ene= -1.03759715174498144e+01
 Spin= Alpha
 Occup=  1.00000000000000000e+00
  1  2.35995430390223480e-05
  2  9.04450607677180523e-05
  3 -2.10988173711446994e-05
  4 -1.17236419339616982e-06
  5 -3.36229252386506330e-05
  6 -3.43224589303735197e-04
  7  3.43516991570251508e-04
  8 -3.67457820513369565e-06
  9  4.02938193533486312e-04
 10 -3.48132812630366610e-04
 11  4.75953584119724691e-04
 12  2.81655683691702278e-04
 13  8.43110548588158844e-06
 14 -9.69364403088535678e-05
 15 -2.17897548458296538e-04
 16  5.31067468945443840e-05
 17  1.92106124155456241e-05
 18  4.68304453141725749e-06
 19  6.57001155941191843e-03
 20 -1.03697214275378811e-03
 21  6.84957137438158979e-04
 22 -6.36134289079495849e-03
 23 -3.26374192248484929e-05
 24 -1.69239438361774299e-04
 25  1.03599699095274355e-04
 26 -1.13799322569277359e-05
 27  7.10594242079104558e-05
 28 -2.02253453448449582e-04
 29 -2.80650475634736097e-05
 30 -8.24033557348130162e-05
 31 -3.72840974703971711e-04
 32  1.31271046402293414e-03
 33  1.59153799268213340e-04
 34  3.79467737134763579e-04
 35  1.96954612994490859e-04
 36 -4.72609204025101475e-04
 37 -2.07737441740447654e-04
 38 -4.09061192222413841e-05
 39  6.10411924524696214e-04
 40  1.66078442553898263e-04
 41  2.93330781774573888e-05
 42 -3.29459093468268327e-04
 43 -1.13835921228768112e-04
 44 -1.60634426330719532e-02
 45 -2.76815223865079689e-03
 46  3.97247916262729643e-05
 47 -3.48114272521045072e-03
 48 -8.20392259806846503e-05
 49 -8.78891609909694552e-05
 50  7.75595044819588379e-04
 51 -8.94474176792935116e-03
 52 -6.91405766578880986e-03
 53 -6.22757130885245825e-04
 54  1.33944582900753490e-05
 55  7.77123560738479852e-04
 56 -1.81184909027735388e-03
 57  3.27773652285685098e-03
 58 -8.37228247944982662e-05
 59 -4.27101823711409628e-03
 60  1.21064283091707413e-03
 61 -2.31570179648704340e-04
 62  4.67229660073389659e-04
 63  2.91752505323998384e-03
 64 -1.78156807825171227e-03
 65  2.13983046458277818e-03
 66 -9.67041181948285052e-05
 67 -3.03202065399579932e-04
 68  1.89199721879168559e-04
 69 -9.38944211043028602e-03
 70  1.59917569019838693e-03
 71 -6.23183549111660140e-04
 72 -5.24451848396219485e-04
 73 -2.90756512304278405e-04
 74  2.28294297294664533e-04
 75  1.59881214142393855e-03
 76  5.62780029876438270e-01
 77  4.63327131707703954e-01
 78 -3.04999686217476910e-04
 79 -3.34722176543650655e-05
 80  3.79032018410547296e-04
 81  1.86973055567829678e-02
 82  2.94994118845039177e-03
 83  8.42274889171560064e-05
 84 -3.12122426512932314e-03
 85 -1.36416361122994306e-02
 86 -3.35950280741712523e-03
 87 -6.65931865557030486e-04
 88  2.55706913578974320e-04
 89  1.66660467060583250e-03