[Molden Format]
[Atoms] (AU)
C    1    6         2.688203947216       0.126267316038      -0.211284584910
H    2    1         4.728095907479       0.359456870713      -0.218011119477
C    3    6         1.369782617967       0.204435981782      -2.374855666231
H    4    1         2.318345438850       0.530982748944      -4.165937681460
C    5    6        -1.369782617967      -0.204435981782      -2.374855666231
H    6    1        -2.318345438850      -0.530982748944      -4.165937681460
C    7    6        -2.688203947216      -0.126267316038      -0.211284584910
H    8    1        -4.728095907290      -0.359456870902      -0.218011119477
C    9    6        -1.377448045575       0.458746757807       2.255586404767
H   10    1        -1.428727068278       2.518961490447       2.552818698465
H   11    1        -2.401900037590      -0.368832778254       3.849461186775
C   12    6         1.377448045575      -0.458746757807       2.255586404767
H   13    1         1.428727068278      -2.518961490069       2.552818698465
H   14    1         2.401900037401       0.368832778065       3.849461186397
[GTO]
  1 0
 s    6  1.00
     4563.2400000000         0.0019666500
      682.0240000000         0.0152306000
      154.9730000000         0.0761269000
       44.4553000000         0.2608010000
       13.0290000000         0.6164620000
        1.8277300000         0.2210060000
 s    3  1.00
       20.9642000000         0.1146600000
        4.8033100000         0.9199990000
        1.4593300000        -0.0030306800
 p    3  1.00
       20.9642000000         0.0402487000
        4.8033100000         0.2375940000
        1.4593300000         0.8158540000
 s    1  1.00
        0.4834560000         1.0000000000
 p    1  1.00
        0.4834560000         1.0000000000
 s    1  1.00
        0.1455850000         1.0000000000
 p    1  1.00
        0.1455850000         1.0000000000
 d    1  1.00
        0.6260000000         1.0000000000
 s    1  1.00
        0.0438000000         1.0000000000
 p    1  1.00
        0.0438000000         1.0000000000

  2 0
 s    3  1.00
       33.8650000000         0.0254938000
        5.0947900000         0.1903730000
        1.1587900000         0.8521610000
 s    1  1.00
        0.3258400000         1.0000000000
 s    1  1.00
        0.1027410000         1.0000000000

  3 0
 s    6  1.00
     4563.2400000000         0.0019666500
      682.0240000000         0.0152306000
      154.9730000000         0.0761269000
       44.4553000000         0.2608010000
       13.0290000000         0.6164620000
        1.8277300000         0.2210060000
 s    3  1.00
       20.9642000000         0.1146600000
        4.8033100000         0.9199990000
        1.4593300000        -0.0030306800
 p    3  1.00
       20.9642000000         0.0402487000
        4.8033100000         0.2375940000
        1.4593300000         0.8158540000
 s    1  1.00
        0.4834560000         1.0000000000
 p    1  1.00
        0.4834560000         1.0000000000
 s    1  1.00
        0.1455850000         1.0000000000
 p    1  1.00
        0.1455850000         1.0000000000
 d    1  1.00
        0.6260000000         1.0000000000
 s    1  1.00
        0.0438000000         1.0000000000
 p    1  1.00
        0.0438000000         1.0000000000

  4 0
 s    3  1.00
       33.8650000000         0.0254938000
        5.0947900000         0.1903730000
        1.1587900000         0.8521610000
 s    1  1.00
        0.3258400000         1.0000000000
 s    1  1.00
        0.1027410000         1.0000000000

  5 0
 s    6  1.00
     4563.2400000000         0.0019666500
      682.0240000000         0.0152306000
      154.9730000000         0.0761269000
       44.4553000000         0.2608010000
       13.0290000000         0.6164620000
        1.8277300000         0.2210060000
 s    3  1.00
       20.9642000000         0.1146600000
        4.8033100000         0.9199990000
        1.4593300000        -0.0030306800
 p    3  1.00
       20.9642000000         0.0402487000
        4.8033100000         0.2375940000
        1.4593300000         0.8158540000
 s    1  1.00
        0.4834560000         1.0000000000
 p    1  1.00
        0.4834560000         1.0000000000
 s    1  1.00
        0.1455850000         1.0000000000
 p    1  1.00
        0.1455850000         1.0000000000
 d    1  1.00
        0.6260000000         1.0000000000
 s    1  1.00
        0.0438000000         1.0000000000
 p    1  1.00
        0.0438000000         1.0000000000

  6 0
 s    3  1.00
       33.8650000000         0.0254938000
        5.0947900000         0.1903730000
        1.1587900000         0.8521610000
 s    1  1.00
        0.3258400000         1.0000000000
 s    1  1.00
        0.1027410000         1.0000000000

  7 0
 s    6  1.00
     4563.2400000000         0.0019666500
      682.0240000000         0.0152306000
      154.9730000000         0.0761269000
       44.4553000000         0.2608010000
       13.0290000000         0.6164620000
        1.8277300000         0.2210060000
 s    3  1.00
       20.9642000000         0.1146600000
        4.8033100000         0.9199990000
        1.4593300000        -0.0030306800
 p    3  1.00
       20.9642000000         0.0402487000
        4.8033100000         0.2375940000
        1.4593300000         0.8158540000
 s    1  1.00
        0.4834560000         1.0000000000
 p    1  1.00
        0.4834560000         1.0000000000
 s    1  1.00
        0.1455850000         1.0000000000
 p    1  1.00
        0.1455850000         1.0000000000
 d    1  1.00
        0.6260000000         1.0000000000
 s    1  1.00
        0.0438000000         1.0000000000
 p    1  1.00
        0.0438000000         1.0000000000

  8 0
 s    3  1.00
       33.8650000000         0.0254938000
        5.0947900000         0.1903730000
        1.1587900000         0.8521610000
 s    1  1.00
        0.3258400000         1.0000000000
 s    1  1.00
        0.1027410000         1.0000000000

  9 0
 s    6  1.00
     4563.2400000000         0.0019666500
      682.0240000000         0.0152306000
      154.9730000000         0.0761269000
       44.4553000000         0.2608010000
       13.0290000000         0.6164620000
        1.8277300000         0.2210060000
 s    3  1.00
       20.9642000000         0.1146600000
        4.8033100000         0.9199990000
        1.4593300000        -0.0030306800
 p    3  1.00
       20.9642000000         0.0402487000
        4.8033100000         0.2375940000
        1.4593300000         0.8158540000
 s    1  1.00
        0.4834560000         1.0000000000
 p    1  1.00
        0.4834560000         1.0000000000
 s    1  1.00
        0.1455850000         1.0000000000
 p    1  1.00
        0.1455850000         1.0000000000
 d    1  1.00
        0.6260000000         1.0000000000
 s    1  1.00
        0.0438000000         1.0000000000
 p    1  1.00
        0.0438000000         1.0000000000

  10 0
 s    3  1.00
       33.8650000000         0.0254938000
        5.0947900000         0.1903730000
        1.1587900000         0.8521610000
 s    1  1.00
        0.3258400000         1.0000000000
 s    1  1.00
        0.1027410000         1.0000000000

  11 0
 s    3  1.00
       33.8650000000         0.0254938000
        5.0947900000         0.1903730000
        1.1587900000         0.8521610000
 s    1  1.00
        0.3258400000         1.0000000000
 s    1  1.00
        0.1027410000         1.0000000000

  12 0
 s    6  1.00
     4563.2400000000         0.0019666500
      682.0240000000         0.0152306000
      154.9730000000         0.0761269000
       44.4553000000         0.2608010000
       13.0290000000         0.6164620000
        1.8277300000         0.2210060000
 s    3  1.00
       20.9642000000         0.1146600000
        4.8033100000         0.9199990000
        1.4593300000        -0.0030306800
 p    3  1.00
       20.9642000000         0.0402487000
        4.8033100000         0.2375940000
        1.4593300000         0.8158540000
 s    1  1.00
        0.4834560000         1.0000000000
 p    1  1.00
        0.4834560000         1.0000000000
 s    1  1.00
        0.1455850000         1.0000000000
 p    1  1.00
        0.1455850000         1.0000000000
 d    1  1.00
        0.6260000000         1.0000000000
 s    1  1.00
        0.0438000000         1.0000000000
 p    1  1.00
        0.0438000000         1.0000000000

  13 0
 s    3  1.00
       33.8650000000         0.0254938000
        5.0947900000         0.1903730000
        1.1587900000         0.8521610000
 s    1  1.00
        0.3258400000         1.0000000000
 s    1  1.00
        0.1027410000         1.0000000000

  14 0
 s    3  1.00
       33.8650000000         0.0254938000
        5.0947900000         0.1903730000
        1.1587900000         0.8521610000
 s    1  1.00
        0.3258400000         1.0000000000
 s    1  1.00
        0.1027410000         1.0000000000

[5D]
[9G]

[MO]
 Sym= A
 Ene= -1.37467384720660561e+01
 Spin= Alpha
 Occup=  1.00000000000000000e+00
  1 -3.79919981844567339e-04
  2  1.72331587004243047e-03
  3 -1.18983107186002479e-03
  4  1.56177095688457882e-04
  5 -2.53331509791273951e-03
  6 -6.22078736061870089e-03
  7  8.23879334591207796e-03
  8 -8.72333605339326718e-04
  9  1.62314001913679354e-02
 10  7.23295837234645429e-03
 11 -9.88406633538008172e-03
 12 -2.82258909170532445e-04
 13 -4.30926213573785185e-03
 14 -5.27479675336479329e-03
 15 -8.06022926523129041e-03
 16  1.74749936382942298e-04
 17 -1.79659498424874532e-03
 18  5.24341909815193128e-04
 19 -5.50102721469862485e-02
 20  6.55627583633487578e-03
 21 -7.80999525040976619e-04
 22  6.31461743069477131e-03
 23 -1.07965861809658568e-03
 24  6.29707227884209299e-04
 25  6.03004677750422491e-03
 26 -6.23861852353935542e-01
 27 -4.20958180153156447e-01
 28  8.28746895289309617e-06
 29  2.63523076766558162e-04
 30 -2.26743180789215409e-03
 31  5.73013241939081125e-02
 32  1.69525169826679838e-03
 33 -1.40767664091437567e-03
 34  1.37723553560682929e-02
 35 -5.20611284261246060e-02
 36  7.53318885583836081e-03
 37  2.16312823729032221e-03
 38 -1.34916913215383499e-02
 39  2.57138748408172182e-03
 40  5.98289328640239614e-03
 41 -2.55836551379174043e-04
 42  4.03759135656188255e-03
 43  5.04602002430856126e-04
 44  9.27309428595960994e-02
 45 -8.35412347518840921e-03
 46 -3.16784112063673261e-03
 47  2.01448297465662216e-02
 48  2.81775188235594922e-04
 49 -2.97482810832452524e-03
 50  3.28469240104347021e-03
 51 -9.01895112104425756e-05
 52  5.06445648764529844e-04
 53  2.19281607683932851e-03
 54  2.57756599265019596e-04
 55 -3.42986243511453500e-04
 56 -6.02002894942811292e-04
 57 -8.84380483876498133e-03
 58 -9.31381504772759079e-04
 59  2.32806144211530593e-03
 60  1.57084502521984727e-02
 61  9.93279888084444215e-03
 62  1.82401899210144717e-03
 63  9.02037794156551088e-03
 64  3.52720502618933743e-03
 65 -8.52568375164569495e-04
 66  3.23054965579759189e-04
 67 -3.81310861068338445e-03
 68 -1.41998919854972373e-03
 69 -6.62233316704134017e-02
 70 -5.03017384563837246e-03
 71  2.01779270649985490e-04
 72 -7.49355847815817190e-03
 73 -7.09088075326320890e-04
 74  1.25197521492460828e-03
 75  5.85968048628849811e-03
 76 -6.27959043974625844e-05
 77  3.37728231277746821e-04
 78  1.85372076947865885e-04
 79  3.55503135558767283e-05
 80 -3.94855542918038922e-04
 81 -1.64479800769417673e-03
 82 -2.15435011032674185e-03
 83 -1.15603089951521394e-04
 84  3.23260405980812420e-03
 85 -1.13049404177333560e-02
 86 -5.16299337673023842e-03
 87 -6.44848304022218699e-04
 88 -1.76341293688760331e-03
 89 -6.06988001597505043e-04
 90  1.70212908465605986e-03
 91  1.45126291856962649e-04
 92  7.81088371404435188e-05
 93  1.69700450562179612e-04
 94  1.82200880622076615e-02
 95  4.15484036803669306e-03
 96 -1.39227146458481815e-03
 97 -9.39161931259708226e-03
 98 -2.37127187704577530e-04
 99 -7.50229047016033796e-04
100  1.04888445275877549e-03
101 -4.13866919244219804e-05
102  2.73023824278404055e-04
103  2.45987461626435917e-05
104 -7.49578959058075156e-05
105 -5.66911313570762950e-05
106 -1.97603389685468414e-03
107 -3.34894124506105535e-04
108  4.12370839075645564e-04
109  6.47125822123807747e-04
110  1.05817205801475561e-02
111  1.74087393356776388e-03
112 -4.24261284677191484e-04
113 -3.07583212065641858e-03
114  7.09940945837114735e-05
115 -3.61260702180316788e-04
116 -5.41736105179638726e-05
117 -2.90297522101627383e-05
118  1.17408188158632783e-04
119 -1.85338388226750569e-02
120 -1.01867446561334663e-02
121 -1.95488901020819623e-05
122  5.05858860221351380e-04
123  2.60059447845226600e-04
124 -1.98203490990047108e-03
125  1.43259137548859224e-03
126 -7.20372322042525182e-05
127 -6.70566799951306412e-04
128  1.04677594500088137e-03
129 -5.28576127456424595e-05
130  3.33369714911679687e-04
131  2.71716229704037284e-04
132  4.01175080580126007e-05
133 -4.62418890385225432e-04
134 -1.12598717729697848e-03
135 -1.26590678609920983e-03
136 -4.05642023507882168e-04
137  2.68421670318320362e-03
138 -6.19694578208865050e-03
139  2.38321312556793183e-03
140 -2.46005926877911583e-03
141  4.52806867115682738e-04
142 -1.00482329249046952e-03
143  1.32307752298523192e-03
144  5.71086069631697706e-04
145  2.35986320791052616e-04
146 -6.08137437429201241e-05
147  2.91283029261681162e-02
148 -4.99382276893205017e-03
149  4.30416175471603178e-03
150 -1.60141369937114248e-03
151  1.49835900421733638e-04
152 -7.23308179703174847e-04
153 -1.47362449003936823e-03
154 -4.30793718237973931e-04
155  6.86940587130189444e-04
156 -2.85974938144692054e-05
 Sym= A
 Ene= -1.15220698834783217e+01
 Spin= Alpha
 Occup=  1.00000000000000000e+00
  1 -5.63661837301323021e-01
  2 -4.66773985703044902e-01
  3  4.76419556711837552e-04
  4 -1.28058591643673086e-04
  5  8.97668879283370410e-04
  6 -2.59240432091120731e-03
  7 -4.38225930123811291e-04
  8  1.03078184398935145e-04
  9 -7.80616113219947884e-04
 10 -2.27801386396139175e-04
 11  3.86370866349475478e-04
 12 -5.62418515209112902e-05
 13  4.92487878845012501e-04
 14 -2.52377596330723218e-04
 15  1.54227207536100310e-04
 16  1.77910467944227159e-04
 17 -6.58530782306124339e-04
 18 -1.93100970288921317e-04
 19  7.75660132228673496e-04
 20  3.74607672382974114e-04
 21  3.04309848641618624e-04
 22 -8.34173922640745282e-04
 23 -3.31745972453650201e-04
 24  1.78621988246082362e-04
 25 -5.33427911353315351e-04
 26  3.08799415887060964e-04
 27  3.17938957301272518e-04
 28 -1.46406742505613601e-04
 29  1.45075423737188844e-05
 30 -2.67948442565216194e-04
 31 -7.22146275968638682e-04
 32 -3.87217168854655711e-04
 33 -1.99575974926892832e-06
 34 -4.92891271725540473e-04
 35  5.54879712039499286e-04
 36  2.77438363566685298e-04
 37  3.68441559616357179e-05
 38  2.11524547413288543e-04
 39 -1.56917368543625727e-04
 40 -2.82667721002814048e-04
 41 -1.34153310618281738e-05
 42  4.89044804519953724e-05
 43  4.80979826803016233e-05
 44  1.37348648544979385e-04
 45 -1.06342420173970880e-03
 46 -2.12572759993979462e-04
 47 -4.66474027346304128e-04
 48 -2.72840222096394637e-05
 49 -4.70847439789626903e-05
 50  3.25373486884304212e-05
 51  4.03087906014152887e-05
 52  4.31044382221856842e-05
 53  2.41938650681958150e-05
 54  3.41979957452269535e-06
 55  1.84637817273052254e-06
 56 -5.33975894080661065e-05
 57 -1.35899020205481989e-04
 58 -1.56395106369748604e-05
 59  1.42504751874231498e-05
 60  6.73581968650649140e-05
 61  1.78227012935782233e-04
 62  2.28026378094799096e-05
 63  3.41643940419352032e-05
 64  4.73650604132424811e-05
 65 -4.34650385000988725e-05
 66 -5.00194358375678301e-06
 67 -2.31957067736037952e-05
 68 -6.97169178760289227e-06
 69  7.03148949767842428e-05
 70 -8.97500524069641602e-04
 71 -6.54536853634319124e-05
 72  5.53767289807327373e-04
 73 -7.81510944345431670e-06
 74  1.44557490228844147e-05
 75  5.89725226577847992e-05
 76  2.72557219952434704e-05
 77  2.95675391605303053e-05
 78  6.71199826711268336e-06
 79 -8.96091202988771144e-07
 80 -7.18580650171551293e-06
 81 -3.73797349293559272e-05
 82 -3.63184863719601765e-05
 83  3.39051967375931430e-06
 84  6.30966817314454589e-05
 85  9.64569974021867102e-06
 86  3.39622515104543135e-05
 87 -6.65034713944180951e-06
 88 -9.76853758565813699e-05
 89 -1.41051488887220619e-05
 90  2.05244766262377879e-05
 91 -3.72712181860609444e-06
 92 -1.17217438668809550e-06
 93  6.25572112430898413e-06
 94 -5.74147666009951511e-04
 95 -1.03713382549955087e-05
 96  9.52508351727751737e-05
 97  9.05679040378098922e-04
 98 -6.63529710185792091e-06
 99  6.08691973234109775e-06
100  1.91411165189290694e-05
101  1.45700720953986660e-05
102  1.50469075691886771e-05
103  9.18066020796032297e-06
104 -5.28542578739525679e-06
105 -6.62307499756123386e-06
106  4.68575258839774937e-06
107 -2.95800155066863972e-05
108  2.06326378939536436e-05
109  2.02604343357446154e-05
110 -2.22415157242942385e-04
111 -1.17417861019564014e-04
112  1.20155468632215930e-05
113 -6.24406597692207750e-05
114  6.64546234440886019e-06
115  3.81743497171354054e-06
116 -3.55713091645775706e-06
117 -4.24493492744184369e-06
118  1.20874104374398246e-05
119 -3.74739761203840267e-04
120  5.67780352943751524e-04
121  1.14023700968387761e-04
122  2.67148910883505109e-04
123 -2.49813678018721871e-06
124  3.02687432195418882e-05
125  2.59283443327267736e-05
126 -4.81657308294837382e-06
127  7.60144676427568423e-06
128  7.31737029415461025e-05
129 -2.04271437866388036e-03
130 -1.64684139139789523e-03
131 -6.78064515166117317e-05
132 -3.53673820545072888e-05
133  1.23093954933964892e-04
134 -2.81289685546791098e-04
135 -3.69327779757328716e-05
136 -1.63102707687835082e-05
137  9.93296157504588241e-05
138  4.52044143945397239e-04
139 -1.67116843493057821e-04
140  5.34905776995339395e-05
141 -6.20456064649314219e-05
142 -2.74343841432861659e-05
143  2.97333367879253116e-05
144  4.62935112874996197e-06
145  4.83763468793441901e-05
146 -6.45447566239726757e-06
147 -1.51801482614520225e-04
148  3.12338635054116773e-04
149 -2.38056293921098288e-04
150 -1.37096686707788605e-04
151  1.99120237307199971e-05
152 -7.20987815567585743e-05
153  3.62355370906519090e-05
154  5.79689647039098410e-06
155 -8.39763105987204191e-05
156  1.19779152857539837e-04
 Sym= A
 Ene= -1.14542116948122032e+01
 Spin= Alpha
 Occup=  1.00000000000000000e+00
  1 -5.05938985143485038e-05
  2 -1.68788296143322420e-05
  3 -9.68576808342925092e-06
  4  6.83439849646480319e-06
  5 -2.16096307622449011e-05
  6 -1.67823234247739555e-04
  7  1.10552391024659220e-04
  8 -2.59894424135296304e-05
  9  1.96162782150646194e-04
 10  4.08686923237425051e-04
 11 -3.25258144548497502e-04
 12 -1.49079092638830279e-05
 13 -1.73497090435343590e-04
 14 -2.04406227992671794e-05
 15 -1.02912814581481566e-04
 16 -7.33630396669535534e-06
 17  1.89143282433496645e-06
 18  2.19404481512519007e-05
 19 -3.34391749237427380e-03
 20  3.16870004803482827e-04
 21 -1.91915149428741592e-04
 22  1.39772203149320031e-03
 23 -2.04000480388035542e-05
 24  3.21989107496886904e-05
 25  1.65257329612855842e-04
 26  1.52852132719235863e-04
 27  2.10250299907556296e-04
 28  1.38587484959809554e-04
 29  2.19109112043828133e-05
 30 -2.24779947480708634e-05
 31 -5.37820133358621723e-04
 32  8.68372739685647327e-04
 33  1.16852816053961004e-04
 34  1.42315466169287263e-04
 35  9.86717516730241216e-05
 36 -3.53941988267531373e-04
 37 -2.29174850587400859e-05
 38 -2.91288685503387568e-04
 39  3.16147916999283060e-04
 40  7.52966525611861639e-05
 41  6.48313679947127643e-06
 42 -2.82181884833307536e-04
 43 -9.07392132543737002e-05
 44  2.68725374226377921e-03
 45  1.35345766642960916e-03
 46  1.24642369699099002e-04
 47  1.45620553847126987e-03
 48 -2.68086865422801368e-05
 49 -6.61874403351766550e-05
 50  2.65348069379964780e-05
 51 -5.63117553781712576e-01
 52 -4.66315355389469610e-01
 53 -1.55139176938311912e-03
 54 -1.88834028010090424e-04
 55  1.19927674793941514e-04
 56 -3.25807599360297467e-03
 57  1.73768593472192669e-03
 58  1.62660602922101504e-04
 59 -5.61846748310863213e-04
 60 -3.17678624581304960e-05
 61 -8.31367207467631573e-04
 62 -1.46093944909506433e-04
 63 -1.27778181662133465e-04
 64 -8.03872325770451268e-04
 65  3.20375605642647275e-04
 66 -1.36378194151258101e-04
 67 -1.53097941624009710e-04
 68  7.70594347051422854e-07
 69 -5.39489494094748607e-04
 70  9.30330676082995840e-04
 71  1.12450188020138815e-04
 72 -1.32403941320907346e-03
 73 -3.29815498730846673e-04
 74  1.48838991964156121e-04
 75 -6.45345757492480059e-04
 76 -2.21858936851498066e-02
 77 -1.83535794706415935e-02
 78 -1.32137294281293126e-04
 79  9.71049549828638862e-06
 80  2.24548441279939841e-04
 81 -2.89371752644100870e-04
 82  1.54700163021385717e-04
 83 -2.51128173842892269e-05
 84 -3.19008166262187468e-04
 85  5.90060532684097677e-04
 86  2.69087194038195661e-04
 87  9.78906721093960648e-05
 88  2.33599706347032673e-04
 89  1.30761670290782775e-04
 90 -5.64356717427084864e-05
 91  3.97606140455327695e-05
 92  1.13216095965569064e-04
 93  2.60588496371610792e-05
 94  1.28319669677044463e-03
 95 -1.21175484376677241e-04
 96 -2.39732208399113058e-04
 97 -5.56878379220542572e-04
 98 -1.63918935075204297e-05
 99  4.37653233226828887e-05
100 -2.87806301034163877e-06
101 -5.29870150631935846e-05
102 -3.97313892662285814e-05
103  7.01964269339050872e-06
104 -6.85228065954019850e-07
105 -7.01484407357960712e-06
106 -2.15621057328721354e-05
107 -1.38625692316635537e-05
108  7.93290011763343686e-06
109  3.46700722041775176e-05
110 -2.02131736134085688e-04
111  8.95703502620749843e-05
112 -3.55795977727888890e-05
113  7.70889377743313786e-05
114 -3.72976716248066785e-06
115  1.42674940674926123e-05
116 -3.56904339847056389e-07
117  4.84087749036597750e-06
118  5.13093622338850784e-06
119 -2.67379838810249439e-04
120 -3.13999212100205807e-04
121  2.42900112317610476e-04
122 -2.72688309245575316e-04
123  3.68245485027119985e-06
124  2.12575498286743434e-05
125  2.03205468002257563e-05
126  2.77197207007232815e-06
127 -2.48621055671475734e-05
128  9.75369738659952342e-05
129  8.83278038801594705e-05
130  7.75271217535126859e-05
131  6.33949129471438421e-06
132  3.29712104512360048e-06
133 -1.54649740552763002e-05
134 -4.98211151541265652e-07
135 -4.47364697390245875e-05
136 -1.34443164282879930e-05
137  6.60656783300404924e-05
138 -1.75352896071733237e-04
139  9.37873733368155521e-05
140  2.59942755419461853e-05
141  8.57228806744848286e-06
142 -2.24229427485614911e-05
143  2.05047160092948491e-05
144  8.42316502731061076e-06
145  5.04527597683623232e-06
146 -2.57633134776217899e-06
147  8.62681511312737365e-05
148 -6.57341036268456751e-04
149 -6.64487025357738976e-05
150  1.77680211694644392e-04
151 -6.46653441799800689e-06
152  4.10633663434032954e-05
153 -1.71606276426504702e-05
154 -2.93411268401768420e-06
155 -7.64291227701772637e-06
156  2.43385265437240643e-05
 Sym= A
 Ene= -1.14334737791023393e+01
 Spin= Alpha
 Occup=  1.00000000000000000e+00
  1  2.91164803792628173e-05
  2  2.80942081100803592e-05
  3  1.25962566671255155e-06
  4  7.85541802522927388e-07
  5 -2.19495036989511140e-06
  6 -1.12891374890644651e-05
  7  2.10156308545011669e-05
  8 -2.15186155835235320e-06
  9  2.54025427772467813e-05
 10 -6.06998359039427331e-05
 11  1.14131636628394718e-04
 12  5.59947720589842554e-05
 13  4.02631587065433946e-05
 14  2.11798677416376888e-08
 15 -2.14501373429390199e-05
 16  4.91424625388968218e-06
 17 -1.84397329479423251e-07
 18 -1.33814676840726311e-07
 19  1.34626561338009642e-03
 20 -1.91935835214620187e-04
 21  1.17669366627969331e-04
 22 -1.22268801582028951e-03
 23  1.24287613066355017e-06
 24 -3.17697523677355024e-05
 25 -2.13185218335959114e-05
 26  1.26596765291411902e-05
 27  1.65101778559043404e-05
 28  3.02672123656514178e-06
 29 -1.50115223398414764e-06
 30 -1.43312611941230510e-05
 31 -4.14466424544556451e-05
 32  1.15873660069449382e-04
 33  1.51754710898307050e-05
 34  4.36542376440588495e-05
 35 -9.57129027923241685e-05
 36  5.89667494854235501e-05
 37 -2.03394458642143128e-05
 38 -5.69745744925929088e-05
 39  5.60056523890458852e-05
 40 -4.15765443748725043e-06
 41  1.39511878570038216e-06
 42 -2.88405690850621909e-05
 43 -1.01400824044719767e-05
 44 -2.96483339957657023e-03
 45 -5.84827796972772502e-04
 46  8.79304337522764670e-06
 47 -7.14695747019465709e-04
 48 -5.34031862060038767e-06
 49 -1.75060808378980902e-05
 50  7.63607272226206850e-05
 51 -2.24426503345396718e-02
 52 -1.86335846076463446e-02
 53 -2.12896146926486266e-04
 54  5.85994940284406818e-06
 55  2.60682066061901808e-04
 56  1.02656467784321926e-04
 57  1.93878103722189477e-04
 58  2.05811265043355739e-06
 59 -1.56645495648367281e-04
 60  4.08378730866985461e-04
 61  8.73242337299987541e-05
 62  1.02591737458752357e-04
 63  4.95685150345650800e-04
 64 -1.15757331597302510e-04
 65  7.07821604092041768e-05
 66 -2.36248699970239728e-05
 67 -8.91447430620979215e-05
 68 -1.56579903840478020e-05
 69 -1.36158323447974398e-03
 70  1.63454319768664832e-04
 71 -1.32463684508128140e-04
 72  1.57010056893473368e-05
 73 -2.99404411130479591e-05
 74  5.50738252026474246e-05
 75  2.05849336473873016e-04
 76  5.62637742894933068e-01
 77  4.66062451211372575e-01
 78  1.38269870796637055e-04
 79 -3.05649069264526715e-06
 80  5.19547664372070736e-05
 81  5.34523516067841962e-03
 82  1.89676711453044187e-04
 83 -2.12347355858703865e-05
 84 -5.50275643549126016e-04
 85 -1.98505750104346857e-03
 86 -5.84235774488343473e-04
 87 -1.44695080263815284e-04
 88 -2.96248386696898135e-05
 89  1.04057808923429106e-04
 90 -3.11867242690877121e-04
 91 -3.60119631142199591e-05
 92  5.23900196432472049e-05
 93 -2.37136664668547415e-05
 94  2.26291097563820817e-03
 95  7.17262033614283752e-04
 96  2.82919004531856030e-04
 97 -2.84507332358921179e-04
 98  4.09733403142944444e-04
 99 -1.60382817809332580e-04
100  2.62166489447944885e-04
101  7.56189876309324143e-03
102  6.18908016092733614e-03
103 -5.22487018798342467e-05
104 -3.44506091040452681e-05
105 -1.17384124813898027e-04
106  3.79750425810171073e-04
107 -1.94942415124231680e-04
108 -6.75575526401916017e-05
109 -3.28827644770613814e-04
110  4.37237132197332984e-04
111 -3.34816103981065987e-05
112  1.05065959791599548e-04
113 -2.26506181324561448e-04
114  1.05246456940441663e-04
115  1.02826336490186661e-04
116  4.77503193489421085e-05
117 -2.91738837096705718e-05
118  2.66551084522602353e-05
119  1.11391924349203589e-03
120  3.33691458712747204e-04
121 -4.09505113580653241e-04
122  2.50138354147263445e-04
123 -6.60368577882445344e-06
124 -5.12846725183140943e-05
125 -1.11471940847474206e-04
126  1.95826040957376044e-06
127  5.33376084866784983e-05
128 -1.67973089202514461e-04
129 -2.67897564461778439e-04
130 -2.20574335718964746e-04
131  7.96370701167261425e-06
132 -7.73158490388585648e-06
133  2.34058329326806681e-06
134 -4.65235865529432143e-05
135 -1.64061730048227634e-05
136  2.98285183626467074e-05
137  1.02077720338794400e-05
138  1.40958234639943517e-04
139 -1.17972744966989980e-04
140 -1.84014806734355890e-04
141 -7.30993138524057743e-05
142 -1.56298196514727410e-05
143  1.17474472976741428e-05
144 -2.50432715230514460e-06
145  1.42184229925437372e-05
146 -1.89839345342533287e-05
147 -1.59018896240707843e-04
148  8.93816326522208437e-04
149  1.25241410685615048e-04
150 -3.22414052039620585e-04
151  1.94312803837455900e-05
152 -1.29302455732202331e-04
153 -3.38780886806267897e-05
154 -3.52502579673514847e-06
155  5.02251031619868819e-05
156  3.36930188428216553e-05
 Sym= A
 Ene= -1.14309465288430552e+01
 Spin= Alpha
 Occup=  1.00000000000000000e+00
  1 -2.14727206056683365e-03
  2 -1.85735431340917911e-03
  3 -5.70504377334725069e-05
  4 -2.37310604074062401e-05
  5  1.03441434184735787e-04
  6  2.67021398139211151e-04
  7 -2.03081014611257275e-04
  8 -8.23163906426990723e-05
  9  4.03692271302869313e-04
 10  1.16976161881535406e-03
 11 -5.64338859446430422e-04
 12 -1.11658369651579739e-04
 13  3.65516858543111253e-04
 14  1.09006047045475594e-04
 15 -1.71577191607567283e-04
 16 -5.29478786291603945e-05
 17  2.54441330152544598e-05
 18  3.34609876061853236e-05
 19  2.34025845690717703e-03
 20 -3.94984186105118158e-04
 21 -1.32722118620101230e-04
 22 -1.29283201908643019e-04
 23 -2.77045166224295846e-06
 24  2.94409270012083791e-05
 25  9.94664627980212457e-05
 26  7.89229436600665589e-06
 27  3.09699604520763753e-06
 28 -2.80096156737710751e-06
 29 -2.42181968228341032e-06
 30 -8.01924549203274765e-06
 31  2.25588149591111134e-05
 32  2.27900443390766543e-05
 33  1.38663472756203620e-05
 34  6.76084617370755481e-06
 35 -4.58211936306966076e-04
 36  2.67915027389811202e-04
 37  3.88021732436357445e-05
 38 -3.02887522882798314e-04
 39  2.08946003218492653e-05
 40  1.55699379982965646e-05
 41 -6.37598304793420920e-06
 42 -8.09771759855136687e-06
 43 -1.80287244516582811e-06
 44 -3.01465057211419175e-03
 45  2.56729983157041701e-04
 46  1.52562707307756141e-04
 47 -4.34392461197754490e-04
 48  9.87970039751036795e-06
 49 -7.00004533135910041e-05
 50 -2.72148623673957961e-05
 51  8.36727784541882984e-05
 52  7.20008191834757886e-05
 53 -4.50075899231566003e-06
 54 -2.78118845352521092e-06
 55  3.39749917278523685e-06
 56 -3.26115668031861562e-05
 57  1.84900286933012996e-05
 58  1.69962601977973711e-05
 59 -2.66669200672142617e-05
 60  3.65379767210940651e-04
 61  1.26699345356538073e-04
 62  9.18703439686394155e-06
 63  1.69374115617458392e-04
 64 -5.85817667194789239e-06
 65 -2.10534386181423515e-06
 66 -1.09856439138181604e-06
 67  1.63083670142225143e-05
 68  2.46236389000389361e-07
 69  1.85952689332948332e-03
 70  5.01760090486386688e-04
 71 -6.38155524009812990e-06
 72  2.57199969861850609e-04
 73 -4.33295548320774186e-06
 74  2.87342582715121376e-05
 75  3.32203117719842437e-05
 76  1.70949961715771492e-04
 77  1.43314221940065979e-04
 78 -5.89095348930352680e-07
 79 -1.79687195314732096e-06
 80 -2.56455435942639777e-06
 81 -3.24062929862095676e-05
 82 -2.05410195954061307e-05
 83  1.32804034239054132e-05
 84  3.12385014095553304e-06
 85 -9.99818887753116381e-05
 86  4.03504140111250569e-05
 87  1.46174479494773100e-05
 88  7.00284839374735915e-05
 89  9.03128191058018714e-06