[Molden Format]
[Atoms] (AU)
C    1    6         2.654475671432       0.055814226887      -0.229039677364
H    2    1         4.692980978821       0.235147453993      -0.346561428955
C    3    6         1.329745899694       0.142250580301      -2.332308402392
H    4    1         2.216500828928       0.389477932428      -4.096595925881
C    5    6        -1.329745900639      -0.142250567829      -2.332308409951
H    6    1        -2.216500837432      -0.389477941499      -4.096595923614
C    7    6        -2.654475673322      -0.055814214415      -0.229039685678
H    8    1        -4.692980961625      -0.235147480449      -0.346561425553
C    9    6        -1.398835737395       0.400661311797       2.261441507439
H   10    1        -1.595601858272       2.429931884391       2.666753511198
H   11    1        -2.437535925190      -0.557878960861       3.764087664845
C   12    6         1.398835741552      -0.400661305561       2.261441505549
H   13    1         1.595601860539      -2.429931882312       2.666753491544
H   14    1         2.437535912529       0.557878963318       3.764087674483
[GTO]
  1 0
 s    6  1.00
     4563.2400000000         0.0019666500
      682.0240000000         0.0152306000
      154.9730000000         0.0761269000
       44.4553000000         0.2608010000
       13.0290000000         0.6164620000
        1.8277300000         0.2210060000
 s    3  1.00
       20.9642000000         0.1146600000
        4.8033100000         0.9199990000
        1.4593300000        -0.0030306800
 p    3  1.00
       20.9642000000         0.0402487000
        4.8033100000         0.2375940000
        1.4593300000         0.8158540000
 s    1  1.00
        0.4834560000         1.0000000000
 p    1  1.00
        0.4834560000         1.0000000000
 s    1  1.00
        0.1455850000         1.0000000000
 p    1  1.00
        0.1455850000         1.0000000000
 d    1  1.00
        0.6260000000         1.0000000000
 s    1  1.00
        0.0438000000         1.0000000000
 p    1  1.00
        0.0438000000         1.0000000000

  2 0
 s    3  1.00
       33.8650000000         0.0254938000
        5.0947900000         0.1903730000
        1.1587900000         0.8521610000
 s    1  1.00
        0.3258400000         1.0000000000
 s    1  1.00
        0.1027410000         1.0000000000

  3 0
 s    6  1.00
     4563.2400000000         0.0019666500
      682.0240000000         0.0152306000
      154.9730000000         0.0761269000
       44.4553000000         0.2608010000
       13.0290000000         0.6164620000
        1.8277300000         0.2210060000
 s    3  1.00
       20.9642000000         0.1146600000
        4.8033100000         0.9199990000
        1.4593300000        -0.0030306800
 p    3  1.00
       20.9642000000         0.0402487000
        4.8033100000         0.2375940000
        1.4593300000         0.8158540000
 s    1  1.00
        0.4834560000         1.0000000000
 p    1  1.00
        0.4834560000         1.0000000000
 s    1  1.00
        0.1455850000         1.0000000000
 p    1  1.00
        0.1455850000         1.0000000000
 d    1  1.00
        0.6260000000         1.0000000000
 s    1  1.00
        0.0438000000         1.0000000000
 p    1  1.00
        0.0438000000         1.0000000000

  4 0
 s    3  1.00
       33.8650000000         0.0254938000
        5.0947900000         0.1903730000
        1.1587900000         0.8521610000
 s    1  1.00
        0.3258400000         1.0000000000
 s    1  1.00
        0.1027410000         1.0000000000

  5 0
 s    6  1.00
     4563.2400000000         0.0019666500
      682.0240000000         0.0152306000
      154.9730000000         0.0761269000
       44.4553000000         0.2608010000
       13.0290000000         0.6164620000
        1.8277300000         0.2210060000
 s    3  1.00
       20.9642000000         0.1146600000
        4.8033100000         0.9199990000
        1.4593300000        -0.0030306800
 p    3  1.00
       20.9642000000         0.0402487000
        4.8033100000         0.2375940000
        1.4593300000         0.8158540000
 s    1  1.00
        0.4834560000         1.0000000000
 p    1  1.00
        0.4834560000         1.0000000000
 s    1  1.00
        0.1455850000         1.0000000000
 p    1  1.00
        0.1455850000         1.0000000000
 d    1  1.00
        0.6260000000         1.0000000000
 s    1  1.00
        0.0438000000         1.0000000000
 p    1  1.00
        0.0438000000         1.0000000000

  6 0
 s    3  1.00
       33.8650000000         0.0254938000
        5.0947900000         0.1903730000
        1.1587900000         0.8521610000
 s    1  1.00
        0.3258400000         1.0000000000
 s    1  1.00
        0.1027410000         1.0000000000

  7 0
 s    6  1.00
     4563.2400000000         0.0019666500
      682.0240000000         0.0152306000
      154.9730000000         0.0761269000
       44.4553000000         0.2608010000
       13.0290000000         0.6164620000
        1.8277300000         0.2210060000
 s    3  1.00
       20.9642000000         0.1146600000
        4.8033100000         0.9199990000
        1.4593300000        -0.0030306800
 p    3  1.00
       20.9642000000         0.0402487000
        4.8033100000         0.2375940000
        1.4593300000         0.8158540000
 s    1  1.00
        0.4834560000         1.0000000000
 p    1  1.00
        0.4834560000         1.0000000000
 s    1  1.00
        0.1455850000         1.0000000000
 p    1  1.00
        0.1455850000         1.0000000000
 d    1  1.00
        0.6260000000         1.0000000000
 s    1  1.00
        0.0438000000         1.0000000000
 p    1  1.00
        0.0438000000         1.0000000000

  8 0
 s    3  1.00
       33.8650000000         0.0254938000
        5.0947900000         0.1903730000
        1.1587900000         0.8521610000
 s    1  1.00
        0.3258400000         1.0000000000
 s    1  1.00
        0.1027410000         1.0000000000

  9 0
 s    6  1.00
     4563.2400000000         0.0019666500
      682.0240000000         0.0152306000
      154.9730000000         0.0761269000
       44.4553000000         0.2608010000
       13.0290000000         0.6164620000
        1.8277300000         0.2210060000
 s    3  1.00
       20.9642000000         0.1146600000
        4.8033100000         0.9199990000
        1.4593300000        -0.0030306800
 p    3  1.00
       20.9642000000         0.0402487000
        4.8033100000         0.2375940000
        1.4593300000         0.8158540000
 s    1  1.00
        0.4834560000         1.0000000000
 p    1  1.00
        0.4834560000         1.0000000000
 s    1  1.00
        0.1455850000         1.0000000000
 p    1  1.00
        0.1455850000         1.0000000000
 d    1  1.00
        0.6260000000         1.0000000000
 s    1  1.00
        0.0438000000         1.0000000000
 p    1  1.00
        0.0438000000         1.0000000000

  10 0
 s    3  1.00
       33.8650000000         0.0254938000
        5.0947900000         0.1903730000
        1.1587900000         0.8521610000
 s    1  1.00
        0.3258400000         1.0000000000
 s    1  1.00
        0.1027410000         1.0000000000

  11 0
 s    3  1.00
       33.8650000000         0.0254938000
        5.0947900000         0.1903730000
        1.1587900000         0.8521610000
 s    1  1.00
        0.3258400000         1.0000000000
 s    1  1.00
        0.1027410000         1.0000000000

  12 0
 s    6  1.00
     4563.2400000000         0.0019666500
      682.0240000000         0.0152306000
      154.9730000000         0.0761269000
       44.4553000000         0.2608010000
       13.0290000000         0.6164620000
        1.8277300000         0.2210060000
 s    3  1.00
       20.9642000000         0.1146600000
        4.8033100000         0.9199990000
        1.4593300000        -0.0030306800
 p    3  1.00
       20.9642000000         0.0402487000
        4.8033100000         0.2375940000
        1.4593300000         0.8158540000
 s    1  1.00
        0.4834560000         1.0000000000
 p    1  1.00
        0.4834560000         1.0000000000
 s    1  1.00
        0.1455850000         1.0000000000
 p    1  1.00
        0.1455850000         1.0000000000
 d    1  1.00
        0.6260000000         1.0000000000
 s    1  1.00
        0.0438000000         1.0000000000
 p    1  1.00
        0.0438000000         1.0000000000

  13 0
 s    3  1.00
       33.8650000000         0.0254938000
        5.0947900000         0.1903730000
        1.1587900000         0.8521610000
 s    1  1.00
        0.3258400000         1.0000000000
 s    1  1.00
        0.1027410000         1.0000000000

  14 0
 s    3  1.00
       33.8650000000         0.0254938000
        5.0947900000         0.1903730000
        1.1587900000         0.8521610000
 s    1  1.00
        0.3258400000         1.0000000000
 s    1  1.00
        0.1027410000         1.0000000000

[5D]
[9G]

[MO]
 Sym= A
 Ene= -1.37378007701968059e+01
 Spin= Alpha
 Occup=  1.00000000000000000e+00
  1 -4.30296632518905133e-04
  2  1.87107131255732288e-03
  3 -1.17830515932127312e-03
  4  1.45867442512995855e-04
  5 -2.47141758922020480e-03
  6 -7.44610722963696785e-03
  7  9.17451090008164667e-03
  8 -9.38391755911308057e-04
  9  1.75643354975213856e-02
 10  6.72567176167820305e-03
 11 -1.00151011679560538e-02
 12 -1.90339607648593147e-05
 13 -3.94327514365029001e-03
 14 -5.36129596159804541e-03
 15 -8.59702729307869166e-03
 16  3.07930598272824715e-04
 17 -2.03247050434411398e-03
 18  4.99707493494838586e-04
 19 -4.01631930682927046e-02
 20  3.78515752807354923e-03
 21 -1.54582899644627463e-03
 22  1.03573561266746324e-02
 23 -1.13425814237933659e-03
 24  7.51379791897750109e-04
 25  5.92943501119062681e-03
 26 -6.23709669830008195e-01
 27 -4.21411492795564946e-01
 28  2.54483756304495223e-04
 29  2.56622939821670977e-04
 30 -2.19261139831164204e-03
 31  5.95717331278824494e-02
 32  3.13892003339403375e-04
 33 -1.51710174910260230e-03
 34  1.47940981387233595e-02
 35 -4.93581003557794148e-02
 36  7.26684188364150156e-03
 37  1.67891755506664069e-03
 38 -1.38042075862786443e-02
 39  2.09697453149218678e-03
 40  6.59767457445504732e-03
 41 -3.44396925867572240e-04
 42  5.32393720017142452e-03
 43  4.59737407683451173e-04
 44  8.43396257393000809e-02
 45 -4.94866951381819995e-03
 46 -2.05771998215380789e-03
 47  1.80673234010213200e-02
 48  2.89342797135367963e-04
 49 -3.10979498477313709e-03
 50  2.81944778677072332e-03
 51 -1.46098799107761322e-04
 52  7.28919587519753515e-04
 53  2.46477468401096363e-03
 54  1.98248660095642578e-04
 55 -3.82897243834905002e-04
 56 -1.18967233654091180e-03
 57 -1.18338766338041725e-02
 58 -8.69860419802423695e-04
 59  2.93304428193098127e-03
 60  1.38755182284543820e-02
 61  9.57155423561375021e-03
 62  1.29187996235295916e-03
 63  9.21333877882055639e-03
 64  4.33383366717015554e-03
 65 -1.00163938691566869e-03
 66  3.41964124204839062e-04
 67 -4.95567902270120479e-03
 68 -1.33192278619657196e-03
 69 -5.07930837132201454e-02
 70 -4.72107203544218455e-03
 71  4.78635892627464390e-04
 72 -4.95645408548529582e-03
 73 -9.02689685566657619e-04
 74  1.43879014468954063e-03
 75  6.03106008931034599e-03
 76 -7.72150403339931019e-05
 77  4.06529995106165096e-04
 78  1.88448997449458988e-04
 79  2.37224550224147031e-05
 80 -4.12318437912032921e-04
 81 -2.28245100560415257e-03
 82 -2.61686788184041464e-03
 83 -4.00834747139598417e-05
 84  3.81521029673959934e-03
 85 -1.08206719360845940e-02
 86 -4.38643497435424294e-03
 87 -3.95772229946507654e-04
 88 -1.66619500529156155e-03
 89 -5.95958729030309376e-04
 90  2.10182886724172551e-03
 91  1.41567345553136989e-04
 92  3.63796213012825895e-05
 93  1.65248443819239038e-04
 94  1.60294045853581896e-02
 95  3.80417405080233023e-03
 96 -8.40806276944645534e-04
 97 -5.54524327367485019e-03
 98 -3.19710149494017873e-04
 99 -5.54940994597445496e-04
100  1.24399161556025062e-03
101 -4.45503673708151299e-05
102  2.88577939295176129e-04
103  3.55165388023875297e-05
104 -7.51071635237320962e-05
105 -6.02851444777327048e-05
106 -1.95595210812485928e-03
107 -3.57156979988619843e-04
108  4.17602816976534645e-04
109  7.73848156979271102e-04
110  9.55111229335726432e-03
111  1.77636207582447200e-03
112 -3.52797450751438904e-04
113 -2.92420227210119388e-03
114  3.07628687232056842e-05
115 -4.53441456727465809e-04
116 -6.76533188321670048e-05
117 -5.04270335595109545e-05
118  1.19238744284138647e-04
119 -2.24789225424219426e-02
120 -8.22569181778353559e-03
121  3.15900746545315348e-04
122  1.74310838162956903e-03
123  2.42830391883181400e-04
124 -1.79777165544460797e-03
125  2.10932175668472697e-03
126 -7.56747092736623797e-05
127 -6.63353761533508118e-04
128  1.62174792530596790e-03
129 -5.61402415328818988e-05
130  3.46009268792448681e-04
131  2.72836674287380530e-04
132  1.98042311506423303e-05
133 -4.60925809458034397e-04
134 -1.21126253487171816e-03
135 -1.30855026610901429e-03
136 -3.23232463130398355e-04
137  2.84134750365411769e-03
138 -5.88541873984583640e-03
139  2.32722700093506438e-03
140 -2.10074719333446522e-03
141  5.22226331794879532e-04
142 -1.16312364841927602e-03
143  1.32090097869789450e-03
144  4.82536876273087446e-04
145  2.65109753748938833e-04
146 -6.48085268901638166e-05
147  1.19322153698681564e-02
148 -5.88052652169381712e-03
149  2.67540053718537266e-03
150  1.62737850689917960e-03
151  1.81114842019705928e-04
152 -8.12024687838230441e-04
153 -4.77590214464862495e-04
154 -3.77826246864311217e-04
155  5.14891132031730235e-04
156  5.81440935766996893e-04
 Sym= A
 Ene= -1.15211776159224257e+01
 Spin= Alpha
 Occup=  1.00000000000000000e+00
  1 -5.63603302290618502e-01
  2 -4.66750935061224892e-01
  3  4.82027626938198294e-04
  4 -9.90605397621191865e-05
  5  8.77885859853530840e-04
  6 -2.81278780253108604e-03
  7 -3.87031128082678335e-04
  8  7.96266148639389651e-05
  9 -7.07183912303951901e-04
 10 -2.31494488750687413e-04
 11  3.85961898488610701e-04
 12 -5.26393171713381253e-05
 13  4.96694586046321170e-04
 14 -3.15047783950747086e-04
 15  1.37401338060390223e-04
 16  1.50548940228936723e-04
 17 -6.69244728996267911e-04
 18 -1.34348524887744931e-04
 19  7.19716770531928971e-04
 20  4.09852539180414934e-04
 21  3.12195238310037260e-04
 22 -1.16612313994964001e-03
 23 -3.47400725267627084e-04
 24  1.87880951154433749e-04
 25 -5.41329892899921001e-04
 26  3.56608386705704905e-04
 27  3.44835970207565533e-04
 28 -1.74790917005152610e-04
 29  1.52739685409985193e-05
 30 -3.01112797589826947e-04
 31 -7.40737292507398504e-04
 32 -3.62374552041397889e-04
 33  3.06598859296968636e-06
 34 -4.43773027672130166e-04
 35  6.76159928714070127e-04
 36  2.82685105184672517e-04
 37  2.63595594520585925e-05
 38  2.19103395214379702e-04
 39 -1.40646653962372693e-04
 40 -2.74368119258583355e-04
 41 -8.98531794241048343e-06
 42  6.62127637957671890e-05
 43  4.01464527129989903e-05
 44 -4.82974329246626058e-05
 45 -1.28691980074557930e-03
 46 -1.87806974311976825e-04
 47 -5.99470166200402675e-04
 48 -2.72956861154690953e-05
 49 -4.35154270269234511e-05
 50  7.13425930326009915e-06
 51  3.70675626344224666e-05
 52  3.99235457591344084e-05
 53  1.97178528097492218e-05
 54  2.22909692593195407e-06
 55  3.03469906539151835e-06
 56 -5.85412340432782345e-05
 57 -1.33463181012360543e-04
 58 -1.07384317072109827e-05
 59  1.03105760375290519e-05
 60  3.07512260803008942e-05
 61  1.58755399239558033e-04
 62  1.19246981238775986e-05
 63  3.85267916044692526e-06
 64  4.35946886310229151e-05
 65 -4.92421381740824329e-05
 66 -4.36110329476626829e-06
 67 -1.90615415442412565e-05
 68 -3.51889911293148684e-06
 69 -6.39333269083824436e-05
 70 -1.03847849522224799e-03
 71 -4.15914698243634233e-05
 72  6.29514962387089255e-04
 73 -7.26209352784521121e-06
 74  8.77051459420529149e-06
 75  4.61169387074689645e-05
 76  3.14130647441937291e-05
 77  3.30565924297663327e-05
 78  6.13485277312552437e-06
 79 -7.31338271863506796e-07
 80 -6.01379804847644718e-06
 81 -4.27141276619779175e-05
 82 -3.52565894033585129e-05
 83  3.33854191205606838e-06
 84  6.16544449279601733e-05
 85  5.80857573672537343e-05
 86  6.87536983875754426e-05
 87 -1.46388042733120885e-06
 88 -9.38196571449587330e-05
 89 -1.44752188359108329e-05
 90  1.93520800320086357e-05
 91 -3.78428104896746557e-06
 92 -6.79376850494914463e-07
 93  5.47238346259205723e-06
 94 -9.59848330307888154e-04
 95 -5.34591808094546118e-05
 96  7.13481397267273895e-05
 97  9.27812154759310808e-04
 98 -6.92974917176177281e-06
 99  1.06490649045651065e-05
100  2.85731231195442862e-05
101  1.50466182210247283e-05
102  1.52933847324419166e-05
103  1.02506823530205988e-05
104 -4.76183990823658754e-06
105 -6.51144033268694987e-06
106  9.36091540695654394e-06
107 -3.19488912133123157e-05
108  1.76998649216315264e-05
109  1.93056443386345979e-05
110 -2.64904112918099726e-04
111 -1.27267927157955607e-04
112  2.00085056520435948e-05
113 -4.47716684547375891e-05
114  6.21722918913898568e-06
115  4.85862135662122701e-06
116 -2.69068514695878585e-06
117 -6.33745542421357509e-06
118  1.27177458992505447e-05
119 -1.87676460676371111e-04
120  5.58438998322989023e-04
121  9.12184256079228399e-05
122  2.38032434740516726e-04
123 -3.78871613933518960e-06
124  3.47763471628689753e-05
125 -9.13635575600003929e-06
126 -4.98011458736431528e-06
127  1.19476741324087406e-05
128  4.65085017075892265e-05
129 -2.23290840024414124e-03
130 -1.80368131696442358e-03
131 -6.83769565584453653e-05
132 -3.17936550497294437e-05
133  1.35712560452736918e-04
134 -2.88309190991746771e-04
135 -2.90599869966903143e-05
136 -8.88093906032741951e-06
137  8.78217609455456003e-05
138  4.89326729860580499e-04
139 -1.65896316828170401e-04
140  4.08700425944231058e-05
141 -4.55244027479361906e-05
142 -2.80349918840563310e-05
143  2.21502510881863616e-05
144  2.72390144205590737e-06
145  5.70440114271626402e-05
146 -4.82589899076559896e-06
147  4.88364110389645370e-04
148  4.09429113636955531e-04
149 -1.98859293313339208e-04
150 -2.80426596613096073e-04
151  2.06023651641716467e-05
152 -7.57815900656351319e-05
153 -6.49588160183203495e-06
154  6.65809619847260268e-06
155 -8.76108876636635443e-05
156  7.42096082856201370e-05
 Sym= A
 Ene= -1.14412143436073723e+01
 Spin= Alpha
 Occup=  1.00000000000000000e+00
  1 -4.95134962255130780e-05
  2 -1.79870153686173038e-05
  3 -6.43358979160776947e-06
  4  6.65776195503702061e-06
  5 -1.64301396354497215e-05
  6 -1.73887179807479436e-04
  7  1.02036796330171167e-04
  8 -2.76694677315329302e-05
  9  1.83714196353279390e-04
 10  5.67142650611150755e-04
 11 -3.70822443178597588e-04
 12 -6.10710171015182049e-06
 13 -1.76713945446529388e-04
 14 -1.08150479825772813e-05
 15 -9.58321680030789236e-05
 16 -2.73819719491315878e-06
 17  7.79072692460994530e-07
 18  1.84771020260743661e-05
 19 -3.63792775589851913e-03
 20  3.24598255922017463e-04
 21 -1.85670098663014149e-04
 22  1.61332602333716661e-03
 23 -1.92066206504199185e-05
 24  3.35383061537084941e-05
 25  1.53022124792728234e-04
 26  1.92711251223041697e-04
 27  2.43466191890325451e-04
 28  2.09590799611463337e-04
 29  2.28960007040372100e-05
 30 -1.87409620951596336e-05
 31 -6.40297837053059311e-04
 32  8.74026567837128091e-04
 33  8.39823880387486314e-05
 34  1.21442651484183380e-04
 35  5.51202130945877187e-05
 36 -3.34658390552018236e-04
 37 -4.59385486537824705e-06
 38 -4.34080160636806853e-04
 39  3.18977424536209049e-04
 40  8.97649069698380894e-05
 41  9.90246822618777470e-06
 42 -2.69484808925769424e-04
 43 -5.83865396777309977e-05
 44  2.30142683872427457e-03
 45  1.74253102577487688e-03
 46  1.13650434027360125e-04
 47  1.57563823179042960e-03
 48 -2.69204952110470447e-05
 49 -9.24105324256857113e-05
 50 -3.28050927336648719e-05
 51 -5.62006572919783731e-01
 52 -4.65458334770327997e-01
 53 -1.52212078765734220e-03
 54 -1.31485003674573238e-04
 55  1.20891950393788969e-04
 56 -3.84585562515991474e-03
 57  1.79815721012887685e-03
 58  1.00965563353678207e-04
 59 -6.72190768548706474e-04
 60  3.14877456341836634e-04
 61 -7.96023500690090494e-04
 62 -9.50862247668413872e-05
 63  6.19869864257297670e-05
 64 -8.31060341316902911e-04
 65  4.01281077627591118e-04
 66 -1.20381840018387950e-04
 67 -2.01989993521226437e-04
 68  5.66096678337406752e-06
 69 -2.35366126885511845e-04
 70  1.33130691459371607e-03
 71  1.22428915749264532e-04
 72 -1.53173735570939903e-03
 73 -3.84954556949072108e-04
 74  2.52454194729030581e-04
 75 -7.03696673612127523e-04
 76 -3.96548333703753142e-02
 77 -3.28381814861016669e-02
 78 -1.55938589923371000e-04
 79  1.19560830525275835e-05
 80  2.48480736567425792e-04
 81 -3.72628130226313251e-04
 82  2.25272932201833677e-04
 83 -3.30612885837800830e-05
 84 -4.36333483204343953e-04
 85  5.22590386535067919e-04
 86  1.21956848291621242e-04
 87  8.08867275141726547e-05
 88  2.90025069507389443e-04
 89  1.55888510470146888e-04
 90 -8.63606461304784599e-05
 91  3.84717617169717699e-05
 92  1.32650210251605513e-04
 93  1.65649406302283328e-05
 94  1.21412687595383621e-03
 95 -2.39127849678998143e-04
 96 -2.82343955943482254e-04
 97 -8.86343349312427990e-04
 98 -2.87022893690502946e-05
 99  2.44243811872666357e-05
100 -8.73058431548356012e-05
101 -2.69506978736001076e-04
102 -2.18445432654180901e-04
103  1.20976156004824817e-05
104  5.05412848772267975e-07
105  2.46370868907476663e-07
106 -3.05437206710478510e-05
107 -2.29688864492502947e-05
108  5.80263170274448876e-06
109  2.52240331426352472e-05
110 -1.35879189251732495e-04
111  1.18232533510666501e-04
112 -4.70657290540028210e-05
113  7.27286540430109656e-05
114 -1.74120127020705837e-06
115  2.32430879727040905e-05
116  5.99319085185151250e-07
117  5.03372701085908296e-06
118  5.45907192844456502e-06
119  4.06976973449464945e-04
120 -3.85937283968689913e-04
121  2.23387434494130990e-04
122 -4.36020379625672385e-04
123  1.89528352240582855e-06
124  2.52618544986116842e-05
125  1.00790149811954732e-06
126  4.60757006635236252e-06
127 -2.78276873368392049e-05
128  7.40288988982472221e-05
129  2.55945229117091012e-04
130  2.15082962796620816e-04
131  6.31206265196951077e-06
132  2.21727327965938644e-06
133 -1.58154257722382840e-05
134  9.34240498772171791e-06
135 -4.65018168339819242e-05
136 -8.27920307968654066e-06
137  6.61241370144835321e-05
138 -2.53324511419040067e-04
139  1.06030683018178690e-04
140  7.86195615930657867e-06
141  1.86675094215061003e-05
142 -2.55819697841873193e-05
143  1.90614060295400368e-05
144  6.17257187426416441e-06
145  4.66859586981088986e-06
146 -2.12725395095152672e-06
147 -9.81513777865763304e-05
148 -7.19198583283841035e-04
149 -8.70063239550827844e-05
150  2.23550491749062734e-04
151 -7.78673469310714107e-06
152  4.64565211127815583e-05
153 -4.43120348639846227e-05
154 -2.69342565111465512e-06
155  1.20677284744990589e-06
156  1.67690964733545649e-05
 Sym= A
 Ene= -1.14323039150670169e+01
 Spin= Alpha
 Occup=  1.00000000000000000e+00
  1  2.34326451150147254e-03
  2  2.02108355358554537e-03
  3  5.95762406507450320e-05
  4  2.05715138562933213e-05
  5 -1.20235064005474440e-04
  6 -2.75575482565421830e-04
  7  1.92802483027528946e-04
  8  5.97083666488465223e-05
  9 -3.87156380820573309e-04
 10 -1.30398972640064881e-03
 11  6.36712740358064567e-04
 12  9.16472156585704137e-05
 13 -4.50199536841818426e-04
 14 -1.13408748060391649e-04
 15  1.60049218644025382e-04
 16  3.57745451204645015e-05
 17 -2.46531648076330653e-05
 18 -2.34413196551086686e-05
 19 -2.44265542723566759e-03
 20  4.18254302130690973e-04
 21  1.35202367248340175e-04
 22 -2.42518251500806642e-05
 23  6.02217344787020062e-06
 24 -3.97846229694139128e-05
 25 -1.31264394773521567e-04
 26 -8.14723932444774969e-06
 27 -4.23755501131139584e-06
 28  2.33243327574267849e-06
 29  2.59583677110965336e-06
 30  6.25127482079899465e-06
 31 -2.48661212117086818e-05
 32 -2.10011500388147915e-05
 33 -1.39033921104080286e-05
 34  4.49897472581526089e-06
 35  5.93260231084190488e-04
 36 -3.45764386446218970e-04
 37 -3.34789743778702659e-05
 38  3.64091368151039040e-04
 39 -1.78322438424857587e-05
 40 -1.08891176561450249e-05
 41  5.83829071034546751e-06
 42  1.01882051500174450e-05
 43  2.57987065509039210e-07
 44  2.87527369295866508e-03
 45 -3.13474716073350302e-04
 46 -1.42056274942743428e-04
 47  4.01547251139175736e-04
 48 -9.44055798786432432e-06
 49  7.81538709596451528e-05
 50  6.12233725267211201e-05
 51 -2.57947786646011530e-04
 52 -2.16142577260055463e-04
 53  3.59514946446323889e-06
 54  2.50344661774929514e-06
 55 -1.83082691127427859e-06
 56  3.25747813094781646e-05
 57 -1.75353885821426464e-05
 58 -1.55602222334133972e-05
 59  1.88472870231399061e-05
 60 -5.65811560385923802e-04
 61 -1.78223444085330525e-04
 62 -1.80889828823820274e-05
 63 -2.48982721267273306e-04
 64  3.60907223461696965e-06
 65  3.43426803827341396e-06
 66  7.97894655085723339e-07
 67 -1.64601277820197964e-05
 68  4.67469639672511659e-07
 69 -2.06640700060671144e-03
 70 -4.82047175399867632e-04
 71  3.11117038069507558e-05
 72 -2.84575079827897404e-04
 73  4.72952205942284548e-06
 74 -3.57103748128685764e-05
 75 -6.27064604621882277e-05
 76  2.57804417119219766e-05
 77  2.05918271262673561e-05
 78 -5.09398736931138994e-07
 79  2.02176603351022405e-06
 80  2.08517013327019328e-06
 81  1.80743136792080763e-05
 82  2.38520865691307207e-05
 83 -1.30035604214765973e-05
 84 -4.45675179922318090e-06
 85  2.95383337938299063e-04
 86  7.59820188594293502e-05
 87  2.66715943313626703e-06
 88 -5.60462444198064617e-05
 89 -6.96341358410751500e-06
 90 -1.02146979439986777e-05
 91 -8.39727498212838239e-06
 92 -8.68607184899546371e-06
 93  8.35578403304895056e-06
 94  2.39782832583286488e-03
 95  3.93116282567457600e-04
 96 -1.40276456914397448e-05
 97  4.86498129081177038e-04
 98 -2.40560800255925944e-07
 99 -5.90815582986298363e-06
100 -6.56184341214057285e-05
101 -7.02433091984559690e-03
102 -5.76050619462486514e-03
103 -1.12699516387255560e-04
104  3.87274497818865373e-05
105 -5.21153269987984819e-07
106 -2.60664417104037043e-04
107 -3.15952578516131741e-04
108  6.92291009602101872e-05
109  1.96871625921550138e-05
110 -1.02681850738678740e-03
111 -4.08107047589219784e-04
112  1.92908903339195970e-04
113 -3.48359452028141917e-05
114  7.28181581590055656e-05
115  2.97344736293275371e-05
116 -6.03030281550260694e-07
117 -9.34729484989123218e-05
118  5.67246097612905738e-05
119 -2.96191564096581501e-03
120 -1.79609641620477166e-06
121  2.89140421259182986e-04
122  5.21694747387134775e-04
123  6.32165483752550447e-07
124  3.58223047654959516e-05
125  1.57341676270841379e-05
126 -9.94328492020411004e-06
127  7.84119181765838958e-05
128  1.40295212010917608e-04
129 -5.63308952159051191e-01
130 -4.66451927625833429e-01
131 -1.80961453429896404e-04
132 -9.48728401641919024e-05
133  6.23460429246989242e-04
134 -4.72367350748583836e-03
135  4.55048808827765084e-05
136  1.07656240471434961e-04
137 -4.31419684403084442e-04
138  3.34082160547559794e-03
139 -2.32246154463226144e-04
140  9.28342165253374945e-05
141 -2.39765419228226887e-04
142  5.85864959438119827e-05
143 -1.16838335661105663e-04
144 -6.48514440842459046e-05
145  8.82497253299287297e-05
146 -3.77396575795360627e-05
147  2.52433757342374618e-03
148 -7.71156679483489847e-05
149 -2.28549611915866966e-05
150 -2.88734058432571462e-04
151 -3.14422910173666164e-04
152 -2.16046319386124493e-04
153 -6.08901374978650469e-04
154 -3.24730259446267600e-04
155 -1.62230616624764538e-04
156 -6.38593732865223493e-04
 Sym= A
 Ene= -1.14278535447419287e+01
 Spin= Alpha
 Occup=  1.00000000000000000e+00
  1 -3.13943766941948777e-05
  2 -3.26493122530952730e-05
  3 -1.38519978922367204e-06
  4 -1.56381211362753978e-06
  5  4.69663051534446025e-06
  6  3.65686898097647149e-05
  7 -3.30158015006401103e-05
  8  6.09328588366908519e-06
  9 -4.86024442431264023e-05
 10 -1.92591317985496298e-05
 11 -4.39214584047066921e-05
 12 -5.00770300768283656e-05
 13 -4.46584082825253267e-06
 14 -1.65552789322148486e-06
 15  3.33837365068501927e-05
 16 -3.95860540644648887e-06
 17 -3.49969057397770348e-07
 18 -1.87618373452841748e-06
 19 -1.62829488839121603e-03
 20  2.46241556470592441e-04
 21 -5.53873984990510082e-05
 22  1.06695066850783990e-03
 23  1.66792258048283007e-06
 24  1.88503453766936794e-05
 25  3.97217856129028751e-07
 26 -2.03119276850548316e-05
 27 -2.77069085579020683e-05
 28 -8.10664611074726284e-06
 29  8.41591616381260958e-07
 30  1.58751800226846015e-05
 31  7.47056299886681498e-05
 32 -1.81312808349135609e-04
 33 -1.67477549368643217e-05
 34 -5.39998530266816692e-05
 35  1.38052053692489581e-04
 36 -6.09367712974744997e-06
 37  2.33882282148923408e-05
 38  7.16659398125631797e-05
 39 -8.08426571455974827e-05
 40 -5.67145782322478140e-07
 41 -1.65394903180804491e-06
 42  4.85245539248784034e-05
 43  1.26309300056617970e-05
 44  2.93215834236809549e-03
 45  5.25973046021594305e-04
 46 -3.91484009774519784e-05
 47  6.79591725490544057e-04
 48  1.13407021738648679e-05
 49  6.36803060015226422e-06
 50 -8.53243029768597719e-05
 51  3.99514641464602110e-02
 52  3.31273988502493871e-02
 53  2.84872769516945315e-04
 54 -4.36136793659171691e-06
 55 -2.90045032955370697e-04
 56  9.55574555188709888e-05
 57 -3.67279208623829615e-04
 58  7.29971168743348299e-07
 59  3.08740606686093346e-04
 60 -2.87061507276278134e-04
 61 -4.42071646905258233e-05
 62 -8.06871309573710816e-05
 63 -4.98866913021436711e-04
 64  1.78557278861331059e-04
 65 -1.24032830019243787e-04
 66  2.89560718921825777e-05
 67  1.09919410821919129e-04
 68  7.35885644779402399e-06
 69  9.80616955540060831e-04
 70 -1.25305471166145088e-04
 71  1.23690842383206894e-04
 72 -7.73093796276032666e-05
 73  4.68411599035903087e-05
 74 -6.67577116569889519e-05
 75 -2.09927967871843921e-04
 76 -5.61599120109445460e-01
 77 -4.65213207819963614e-01
 78 -1.13208439390154785e-04
 79 -3.19411047617618427e-07
 80 -9.87088833696708734e-05
 81 -5.47606790138672594e-03
 82 -3.12624697338839729e-04
 83  2.47994238718572922e-05
 84  7.30619924503358043e-04
 85  1.84474490457296313e-03
 86  5.55216032107107857e-04
 87  1.05528538701111764e-04
 88  1.08204686695765039e-05
 89 -1.85154676188685729e-04