[Molden Format]
[Atoms] (AU)
C    1    6         2.654475671432       0.055814226887      -0.229039677364
H    2    1         4.692980978821       0.235147453993      -0.346561428955
C    3    6         1.329745899694       0.142250580301      -2.332308402392
H    4    1         2.216500828928       0.389477932428      -4.096595925881
C    5    6        -1.329745900639      -0.142250567829      -2.332308409951
H    6    1        -2.216500837432      -0.389477941499      -4.096595923614
C    7    6        -2.654475673322      -0.055814214415      -0.229039685678
H    8    1        -4.692980961625      -0.235147480449      -0.346561425553
C    9    6        -1.398835737395       0.400661311797       2.261441507439
H   10    1        -1.595601858272       2.429931884391       2.666753511198
H   11    1        -2.437535925190      -0.557878960861       3.764087664845
C   12    6         1.398835741552      -0.400661305561       2.261441505549
H   13    1         1.595601860539      -2.429931882312       2.666753491544
H   14    1         2.437535912529       0.557878963318       3.764087674483
[GTO]
  1 0
 s    6  1.00
     4563.2400000000         0.0019666500
      682.0240000000         0.0152306000
      154.9730000000         0.0761269000
       44.4553000000         0.2608010000
       13.0290000000         0.6164620000
        1.8277300000         0.2210060000
 s    3  1.00
       20.9642000000         0.1146600000
        4.8033100000         0.9199990000
        1.4593300000        -0.0030306800
 p    3  1.00
       20.9642000000         0.0402487000
        4.8033100000         0.2375940000
        1.4593300000         0.8158540000
 s    1  1.00
        0.4834560000         1.0000000000
 p    1  1.00
        0.4834560000         1.0000000000
 s    1  1.00
        0.1455850000         1.0000000000
 p    1  1.00
        0.1455850000         1.0000000000
 d    1  1.00
        0.6260000000         1.0000000000
 s    1  1.00
        0.0438000000         1.0000000000
 p    1  1.00
        0.0438000000         1.0000000000

  2 0
 s    3  1.00
       33.8650000000         0.0254938000
        5.0947900000         0.1903730000
        1.1587900000         0.8521610000
 s    1  1.00
        0.3258400000         1.0000000000
 s    1  1.00
        0.1027410000         1.0000000000

  3 0
 s    6  1.00
     4563.2400000000         0.0019666500
      682.0240000000         0.0152306000
      154.9730000000         0.0761269000
       44.4553000000         0.2608010000
       13.0290000000         0.6164620000
        1.8277300000         0.2210060000
 s    3  1.00
       20.9642000000         0.1146600000
        4.8033100000         0.9199990000
        1.4593300000        -0.0030306800
 p    3  1.00
       20.9642000000         0.0402487000
        4.8033100000         0.2375940000
        1.4593300000         0.8158540000
 s    1  1.00
        0.4834560000         1.0000000000
 p    1  1.00
        0.4834560000         1.0000000000
 s    1  1.00
        0.1455850000         1.0000000000
 p    1  1.00
        0.1455850000         1.0000000000
 d    1  1.00
        0.6260000000         1.0000000000
 s    1  1.00
        0.0438000000         1.0000000000
 p    1  1.00
        0.0438000000         1.0000000000

  4 0
 s    3  1.00
       33.8650000000         0.0254938000
        5.0947900000         0.1903730000
        1.1587900000         0.8521610000
 s    1  1.00
        0.3258400000         1.0000000000
 s    1  1.00
        0.1027410000         1.0000000000

  5 0
 s    6  1.00
     4563.2400000000         0.0019666500
      682.0240000000         0.0152306000
      154.9730000000         0.0761269000
       44.4553000000         0.2608010000
       13.0290000000         0.6164620000
        1.8277300000         0.2210060000
 s    3  1.00
       20.9642000000         0.1146600000
        4.8033100000         0.9199990000
        1.4593300000        -0.0030306800
 p    3  1.00
       20.9642000000         0.0402487000
        4.8033100000         0.2375940000
        1.4593300000         0.8158540000
 s    1  1.00
        0.4834560000         1.0000000000
 p    1  1.00
        0.4834560000         1.0000000000
 s    1  1.00
        0.1455850000         1.0000000000
 p    1  1.00
        0.1455850000         1.0000000000
 d    1  1.00
        0.6260000000         1.0000000000
 s    1  1.00
        0.0438000000         1.0000000000
 p    1  1.00
        0.0438000000         1.0000000000

  6 0
 s    3  1.00
       33.8650000000         0.0254938000
        5.0947900000         0.1903730000
        1.1587900000         0.8521610000
 s    1  1.00
        0.3258400000         1.0000000000
 s    1  1.00
        0.1027410000         1.0000000000

  7 0
 s    6  1.00
     4563.2400000000         0.0019666500
      682.0240000000         0.0152306000
      154.9730000000         0.0761269000
       44.4553000000         0.2608010000
       13.0290000000         0.6164620000
        1.8277300000         0.2210060000
 s    3  1.00
       20.9642000000         0.1146600000
        4.8033100000         0.9199990000
        1.4593300000        -0.0030306800
 p    3  1.00
       20.9642000000         0.0402487000
        4.8033100000         0.2375940000
        1.4593300000         0.8158540000
 s    1  1.00
        0.4834560000         1.0000000000
 p    1  1.00
        0.4834560000         1.0000000000
 s    1  1.00
        0.1455850000         1.0000000000
 p    1  1.00
        0.1455850000         1.0000000000
 d    1  1.00
        0.6260000000         1.0000000000
 s    1  1.00
        0.0438000000         1.0000000000
 p    1  1.00
        0.0438000000         1.0000000000

  8 0
 s    3  1.00
       33.8650000000         0.0254938000
        5.0947900000         0.1903730000
        1.1587900000         0.8521610000
 s    1  1.00
        0.3258400000         1.0000000000
 s    1  1.00
        0.1027410000         1.0000000000

  9 0
 s    6  1.00
     4563.2400000000         0.0019666500
      682.0240000000         0.0152306000
      154.9730000000         0.0761269000
       44.4553000000         0.2608010000
       13.0290000000         0.6164620000
        1.8277300000         0.2210060000
 s    3  1.00
       20.9642000000         0.1146600000
        4.8033100000         0.9199990000
        1.4593300000        -0.0030306800
 p    3  1.00
       20.9642000000         0.0402487000
        4.8033100000         0.2375940000
        1.4593300000         0.8158540000
 s    1  1.00
        0.4834560000         1.0000000000
 p    1  1.00
        0.4834560000         1.0000000000
 s    1  1.00
        0.1455850000         1.0000000000
 p    1  1.00
        0.1455850000         1.0000000000
 d    1  1.00
        0.6260000000         1.0000000000
 s    1  1.00
        0.0438000000         1.0000000000
 p    1  1.00
        0.0438000000         1.0000000000

  10 0
 s    3  1.00
       33.8650000000         0.0254938000
        5.0947900000         0.1903730000
        1.1587900000         0.8521610000
 s    1  1.00
        0.3258400000         1.0000000000
 s    1  1.00
        0.1027410000         1.0000000000

  11 0
 s    3  1.00
       33.8650000000         0.0254938000
        5.0947900000         0.1903730000
        1.1587900000         0.8521610000
 s    1  1.00
        0.3258400000         1.0000000000
 s    1  1.00
        0.1027410000         1.0000000000

  12 0
 s    6  1.00
     4563.2400000000         0.0019666500
      682.0240000000         0.0152306000
      154.9730000000         0.0761269000
       44.4553000000         0.2608010000
       13.0290000000         0.6164620000
        1.8277300000         0.2210060000
 s    3  1.00
       20.9642000000         0.1146600000
        4.8033100000         0.9199990000
        1.4593300000        -0.0030306800
 p    3  1.00
       20.9642000000         0.0402487000
        4.8033100000         0.2375940000
        1.4593300000         0.8158540000
 s    1  1.00
        0.4834560000         1.0000000000
 p    1  1.00
        0.4834560000         1.0000000000
 s    1  1.00
        0.1455850000         1.0000000000
 p    1  1.00
        0.1455850000         1.0000000000
 d    1  1.00
        0.6260000000         1.0000000000
 s    1  1.00
        0.0438000000         1.0000000000
 p    1  1.00
        0.0438000000         1.0000000000

  13 0
 s    3  1.00
       33.8650000000         0.0254938000
        5.0947900000         0.1903730000
        1.1587900000         0.8521610000
 s    1  1.00
        0.3258400000         1.0000000000
 s    1  1.00
        0.1027410000         1.0000000000

  14 0
 s    3  1.00
       33.8650000000         0.0254938000
        5.0947900000         0.1903730000
        1.1587900000         0.8521610000
 s    1  1.00
        0.3258400000         1.0000000000
 s    1  1.00
        0.1027410000         1.0000000000

[5D]
[9G]

[MO]
 Sym= A
 Ene= -1.25512620314664449e+01
 Spin= Alpha
 Occup=  1.00000000000000000e+00
  1 -6.26234993707673664e-05
  2  3.18823978478653225e-04
  3 -1.50676323531549023e-04
  4 -1.93168808109751002e-05
  5 -3.33816061953031969e-04
  6 -1.84134563202981182e-03
  7  2.12990521293343789e-03
  8  3.68444326665141292e-05
  9  3.09416615393409179e-03
 10 -9.32037333834886440e-03
 11  3.78664950691694506e-03
 12  3.29064547653154765e-04
 13 -1.38143686577594962e-03
 14 -4.90058413295723521e-04
 15 -1.69442342115792778e-03
 16 -1.12601365433146608e-04
 17  4.14912135921788826e-05
 18  1.36237863625997963e-04
 19  1.39599437662439856e-02
 20 -3.28450796537610229e-03
 21  7.00391719791196667e-04
 22 -4.65354278470620809e-03
 23 -2.59934083092612836e-04
 24 -4.58653826553417074e-04
 25  1.01442261150763106e-03
 26 -1.02560970339112589e-04
 27  5.60174677444997974e-04
 28 -2.05281981480497653e-03
 29 -1.66545353988591002e-04
 30 -3.07376313084425619e-04
 31 -8.77328379689487452e-04
 32  9.42694236945605495e-03
 33  6.88417712761091446e-04
 34  2.36218380240138179e-03
 35  1.23282982737669636e-02
 36 -8.17389805788126464e-03
 37 -1.10092970613785094e-03
 38  7.92180855345706557e-03
 39  3.47145531783703580e-03
 40  8.03676557227509815e-04
 41 -2.75944905253413110e-04
 42 -3.96059787124717136e-03
 43 -1.07039197180986518e-03
 44 -4.40916950551870218e-02
 45  4.23099096846586004e-03
 46 -3.77409887028743634e-04
 47 -4.30735940040229137e-03
 48 -7.37573205582713770e-04
 49  1.20586597413527481e-03
 50  5.08424421201392109e-03
 51 -6.22293910221252911e-01
 52 -4.21041238735415935e-01
 53 -2.02869373081285373e-04
 54 -2.09068926603844216e-04
 55 -1.78954039639829597e-03
 56  5.09933916106627416e-02
 57 -2.44628539680443987e-04
 58  1.21837915445209490e-03
 59  1.19179701070840447e-02
 60 -4.24944264980993067e-02
 61 -6.27252918931121319e-03
 62 -1.46173511944186919e-03
 63 -1.19834022911241306e-02
 64  1.54508725186273867e-03
 65 -5.28439927714893266e-03
 66  2.31086550672243268e-04
 67  4.04848170329381342e-03
 68  3.22814964506686097e-04
 69  7.33077968684136549e-02
 70  4.33291303144662469e-03
 71  1.78625108977106513e-03
 72  1.55169285614260768e-02
 73  3.78871163796279679e-04
 74 -2.56073067609541294e-03
 75  2.21904759543504288e-03
 76 -3.22808584590954858e-04
 77  1.45246052948601670e-03
 78  9.98318996277483247e-04
 79 -1.20968572514859249e-04
 80 -2.06463908688996360e-03
 81 -5.87729578180552423e-03
 82 -7.33007218527537054e-03
 83  7.48911051475682006e-04
 84  1.40348615332039229e-02
 85  6.67313735562480477e-03
 86  8.71983161026282892e-03
 87  4.05668324921683925e-05
 88 -3.34668778113233600e-03
 89 -4.30507018417436525e-03
 90  6.88452331465683794e-03
 91 -2.49157960015731258e-04
 92 -1.63535008324746257e-03
 93  3.98754085113976276e-04
 94 -3.57890695573345463e-02
 95 -3.55615141298221919e-03
 96  1.25684284659535652e-03
 97  8.77583167322100802e-03
 98 -9.20667200830393995e-04
 99  6.36033731450226058e-04
100  4.98216197805731974e-03
101 -4.54915510506845839e-05
102  2.69054732955107106e-04
103 -2.21770312269782419e-04
104 -1.49689366044452100e-05
105 -3.69634758289694089e-04
106 -9.68440820173403142e-04
107  1.05944278199143196e-03
108  2.60144359122178360e-04
109  2.30778511931081830e-03
110 -5.23829296735722240e-03
111 -1.97295072992759992e-03
112  1.79296166824131822e-03
113  5.68466072372356157e-04
114 -9.30508744048038380e-04
115 -1.07158534361679941e-03
116 -3.88755084304416164e-04
117  2.14580194258672023e-04
118 -4.73332344735139985e-05
119  1.08479358663435051e-02
120  4.91818137492833728e-03
121 -2.27300275854288268e-03
122  1.16133744977790646e-03
123  1.52103485420539624e-04
124 -6.61541014765787199e-04
125 -4.42998748600054941e-04
126 -3.09541418278271865e-04
127  4.53598872791180139e-04
128  4.51468810000344855e-04
129 -3.64990784714272566e-05
130  2.28260726302421322e-04
131 -2.90744473745008649e-05
132  6.02995204037979420e-05
133 -4.82510653092223544e-05
134 -1.62681786459683685e-03
135  2.94416464893258202e-04
136 -3.38088497272468435e-04
137  6.28871313213476128e-04
138  8.17455391376638654e-03
139 -1.50340536437032859e-03
140  3.30448853027358661e-04
141 -2.48048978237182683e-03
142  2.54117499698900720e-05
143  3.60703723346469181e-04
144  5.01352867424587366e-05
145 -3.56720558574720359e-05
146  9.40404283185792812e-05
147 -1.91244098176032544e-02
148  6.91049240534574033e-03
149 -2.77189640819717933e-04
150  1.52893343045471344e-03
151  2.03213224642819504e-04
152 -1.50281021961038656e-03
153  1.77268174729676496e-03
154 -5.71340569002904135e-05
155 -5.69891204597107698e-04
156  1.33405692573157161e-03
 Sym= A
 Ene= -1.04726657959330893e+01
 Spin= Alpha
 Occup=  1.00000000000000000e+00
  1  5.23179751182617045e-05
  2 -4.51013881193445862e-05
  3  1.71816807833932008e-05
  4 -1.51093634284883598e-06
  5  3.32774494705458316e-05
  6  5.23039224845348602e-04
  7 -4.07955838342790038e-04
  8  2.09517039242443638e-05
  9 -4.75597911912450792e-04
 10 -4.56544528751586811e-04
 11  1.77215295875745470e-04
 12 -1.89731464942002979e-04
 13  8.74686381003408463e-05
 14  9.80092622193147461e-05
 15  2.62995565085826898e-04
 16 -4.71412407829795345e-05
 17 -2.66708474468641414e-05
 18 -1.21700718471219361e-05
 19 -7.67987609725535349e-03
 20  1.25427754340303138e-03
 21 -4.00835459985649986e-04
 22  5.37033495066142983e-03
 23  5.36957092290750863e-05
 24  5.83425011479105486e-05
 25 -2.95359941039792507e-04
 26  6.54901105312200797e-05
 27 -4.62614586932501678e-05
 28  2.21839022977178308e-04
 29  2.16940017748369872e-05
 30  7.70439702692900030e-05
 31  4.43079354299269208e-04
 32 -1.63274697162755708e-03
 33 -1.36849700060856239e-04
 34 -3.95195179355424704e-04
 35  6.00439626377232663e-04
 36  4.70984131105422175e-04
 37  1.32305205056450757e-04
 38  3.53290457703030777e-04
 39 -7.05177675403421858e-04
 40 -2.19985937542467965e-04
 41 -2.78105559019000803e-05
 42  4.28814177346215585e-04
 43  1.05380982702938620e-04
 44  1.36808901177912553e-02
 45  2.80474612059498137e-03
 46 -1.12081113359146248e-04
 47  3.30001327364181371e-03
 48  1.14051037005784446e-04
 49  6.52285487415668001e-05
 50 -6.84725021865404304e-04
 51  2.77201337167144117e-04
 52 -2.59476315412791555e-04
 53  6.77809283991743995e-04
 54 -2.04338366412996042e-05
 55 -8.20253717876732297e-04
 56  1.66837416304841378e-03
 57 -3.80590018955367102e-03
 58  1.05670355902911373e-04
 59  4.56095135593540847e-03
 60 -6.88573259017419433e-04
 61  6.53200038607565272e-05
 62 -4.04000855029124279e-04
 63 -2.99896701098383055e-03
 64  1.84869530432490731e-03
 65 -2.24452026701603153e-03
 66  1.19307264560745437e-04
 67  2.37065275409357356e-04
 68 -1.96304178597312920e-04
 69  7.22233778888315987e-03
 70 -4.06814186645634466e-04
 71  6.48260088530028689e-04
 72 -1.41490848749443234e-04
 73  3.10610867209841815e-04
 74 -2.87612134617960900e-04
 75 -1.75831720477276441e-03
 76 -5.62981798733823702e-01
 77 -4.63373735521375674e-01
 78  4.26177169537858723e-05
 79  1.05400124218215142e-04
 80  3.53181702229849782e-04
 81 -1.85740187275264639e-02
 82 -3.06102508921341334e-03
 83 -7.12904539914275442e-05
 84  2.87046312880902699e-03
 85  1.28067240311461120e-02
 86  3.04908467919164008e-03
 87  4.97325861090601343e-04
 88  1.53363983666337324e-04
 89 -1.82291875682108516e-03
 90  1.55454424184265651e-03
 91 -2.64220927361690872e-04
 92 -7.63127646937161556e-04
 93  8.01577890877567097e-06
 94 -1.75194215786355426e-02
 95 -4.67616276611275156e-03
 96 -1.50184143646910984e-03
 97 -5.14426208437243388e-04
 98 -3.07714983823528831e-04
 99  8.46808802127982309e-04
100 -1.53184304782016901e-03
101 -8.14725474207723954e-04
102 -7.58224334033133344e-04
103  2.51328611717310530e-04
104  8.69180702971896022e-05
105  4.32167616063319077e-04
106 -3.78282327526919073e-05
107 -6.60348230929758986e-04
108 -2.02125927279550718e-04
109 -1.04125637701286185e-03
110 -2.16857948074083377e-03
111  2.26523738232456542e-04
112 -9.96586905810819840e-05
113  1.51504638633434422e-03
114  6.48947739060294713e-04
115  6.90792968653151256e-04
116  2.47885725465555999e-04
117  2.63648915482456777e-04
118  1.95661854140775871e-04
119  3.06239145322696532e-03
120 -2.07843483718020156e-03
121  1.34162883548235505e-03
122 -2.89186764519334645e-03
123  1.88196147948658653e-04
124  2.08152937065289562e-04
125 -3.15912858860645425e-04
126  1.44630101586419645e-04
127 -5.43434220727956842e-05
128  1.04554427935765876e-05
129  2.91696751778933424e-05
130 -3.18447804461434366e-05
131  5.25844484902978070e-05
132  7.32838476467109764e-06
133 -1.05915187236095041e-05
134  3.10945611591848371e-04
135 -2.91916486519723300e-04
136  1.57571589319555089e-05
137 -6.34101922311111063e-05
138 -5.51681964700536975e-05
139  3.57108533641943863e-04
140  6.74727350319457003e-04
141  6.40332517913829656e-05
142 -9.78968151468317607e-05
143 -9.24051862389393031e-05
144 -4.47602427080201772e-05
145  7.83478273442325934e-05
146 -3.56606959158898838e-05
147  1.29698434186762096e-03
148 -3.82447771500891466e-03
149 -4.38320025193012029e-04
150  1.31169313096260692e-03
151 -8.85378108023996763e-05
152  5.00584368670035137e-04
153 -1.04340146903263270e-04
154  7.07432730268164704e-05
155 -1.36931365918458315e-04
156 -4.04880056686410272e-04
 Sym= A
 Ene= -1.03893481232867693e+01
 Spin= Alpha
 Occup=  1.00000000000000000e+00
  1 -1.42898660730100685e-02
  2 -1.22963521243952476e-02
  3  4.06502460415137865e-04
  4 -4.97974678296223699e-05
  5  8.30124238667187585e-04
  6  1.49472238733338995e-03
  7 -2.51673436129649496e-03
  8  2.76263009498287798e-04
  9 -4.94209499648438997e-03
 10 -1.56034551972332415e-03
 11  2.74237975723262738e-03
 12 -4.77803835288857063e-05
 13  1.28000174071486597e-03
 14  1.47932850099497296e-03
 15  2.32401986298245598e-03
 16 -9.35434978381000581e-05
 17  5.79844263698590674e-04
 18 -1.29846152960697388e-04
 19  1.20206672400836254e-02
 20 -8.70646581061695489e-04
 21  6.29836004557728264e-04
 22 -3.54464239021264321e-03
 23  2.97791354156978858e-04
 24 -1.80598166326842620e-04
 25 -1.74567305533371276e-03
 26 -5.62654023046844864e-01
 27 -4.63085952961002134e-01
 28  1.11612822280091626e-03
 29  5.43894057684510428e-05
 30  5.31011048468212044e-04
 31 -1.96035773736144836e-02
 32 -1.24440590727427900e-03
 33  3.14356954244448985e-04
 34 -4.19724528115442402e-03
 35  1.43985244320543326e-02
 36 -1.58844656480967633e-03
 37 -4.15871377989614709e-04
 38  4.00343976589586596e-03
 39 -9.43835681310455934e-04
 40 -1.96798420248920627e-03
 41  1.33005177217215435e-04
 42 -1.43470315692738131e-03
 43 -1.00557645825955424e-04
 44 -2.40378398458854260e-02
 45  5.10013829665698364e-04
 46  4.97218702005579436e-04
 47 -6.14604016613397308e-03
 48 -3.42442015800907388e-04
 49  1.13869120412809707e-03
 50 -1.28210954478602209e-03
 51  1.08821848893315051e-04
 52 -4.09201385585766550e-05
 53 -7.56881690793534184e-04
 54 -6.41771146921807259e-05
 55  9.32972045779781182e-05
 56  7.85175593147806482e-06
 57  2.58345856279933736e-03
 58  1.78921041338409682e-04
 59 -7.02981776815342070e-04
 60 -4.28608840980431501e-03
 61 -2.56482810419872594e-03
 62 -3.81443918994479447e-04
 63 -3.05391758311009771e-03
 64 -9.55044667496654249e-04
 65  1.93851576491880313e-04
 66 -9.87448552605024087e-05
 67  1.12718189378698008e-03
 68  3.15919585504392266e-04
 69  1.63096730401604342e-02
 70  1.53305936616151590e-04
 71 -2.07332975928779968e-04
 72  2.54933171962951283e-03
 73  2.27202603376431363e-04
 74 -4.83067936556594432e-04
 75 -1.76578105727029150e-03
 76 -4.27164903771634860e-05
 77 -1.35754955403703879e-04
 78 -5.15528824043764799e-05
 79 -1.08664175831805609e-05
 80  9.97225541182876366e-05
 81  4.83153268453792291e-04
 82  6.49916859494745073e-04
 83  3.21268056287525897e-05
 84 -8.97273710807235526e-04
 85  3.63764802536043668e-03
 86  1.59028460775137393e-03
 87  1.21601047587861891e-04
 88  3.32095829847507847e-04
 89  1.44810318476071867e-04
 90 -4.97027513058163699e-04
 91 -3.53284863554605551e-05
 92 -6.64311563024827311e-06
 93 -3.14110188693373751e-05
 94 -7.27780855606516112e-03
 95 -1.32537279990252162e-03
 96  3.73227739423598098e-04
 97  2.71261112934608308e-03
 98  6.97885545434878338e-05
 99  1.87879761624218562e-04
100 -2.22383338391153438e-04
101  5.47220367429528923e-04
102  3.71431433858196523e-04
103 -1.81261232900564941e-05
104  1.88009762432916601e-05
105  5.37148126935873526e-06
106  5.64607450373698361e-04
107  1.45602653994350719e-04
108 -1.08161063455908032e-04
109 -1.59287551077912342e-04
110 -2.94272978367890415e-03
111 -5.83265060173677042e-04
112  1.01260974692306320e-04
113  8.66847583187248401e-04
114 -3.32185629641267786e-05
115  1.08274782992891485e-04
116  1.21939902076408264e-05
117  2.14565524387774925e-05
118 -3.41509144883014263e-05
119  6.28680467083921318e-03
120  2.80678561652977906e-03
121 -4.83093067078589066e-05
122 -3.46300982959531168e-04
123 -7.16420104764342168e-05
124  5.32751214156740446e-04
125 -6.18257176086284212e-04
126  1.80003709285189695e-05
127  1.90719339340545736e-04
128 -4.56057601638366189e-04
129  1.18704012143451887e-04
130 -1.26048436368793196e-06
131 -8.57190718925342676e-05
132 -7.34251121091154659e-06
133  1.35505047408463126e-04
134  3.21065791811015833e-04
135  3.93516671061151151e-04
136  9.21607507221672365e-05
137 -8.07597989751023286e-04
138  1.61836488692757301e-03
139 -7.28731559072238631e-04
140  6.25977585599249214e-04
141 -8.85328952581578346e-05
142  3.41396748853217279e-04
143 -3.94086024198279591e-04
144 -1.39743295256063204e-04
145 -6.17380225736405996e-05
146  2.93917565222505557e-05
147 -2.96984203401872001e-03
148  1.93523757747879463e-03
149 -8.84952525964447390e-04
150 -7.81123227919662414e-04
151 -4.17440138592673770e-05
152  2.38112821494116425e-04
153  1.28739517592700743e-04
154  1.07876390110328910e-04
155 -1.63699923594773963e-04
156 -1.38876972880985804e-04
 Sym= A
 Ene= -1.03820622379753011e+01
 Spin= Alpha
 Occup=  1.00000000000000000e+00
  1  2.02981927774194845e-04
  2  1.05457396054966089e-04
  3  3.39915534244159004e-05
  4  3.06112333251113837e-06
  5 -9.35297904305140156e-05
  6  2.63727662053836779e-04
  7 -3.42503965854141482e-04
  8 -6.66826111119630436e-06
  9  4.28973970547069552e-04
 10  3.44334023838810616e-03
 11 -1.27041964296288916e-03
 12 -2.29527931250489523e-04
 13 -2.18983666866895567e-04
 14  1.96554560741595127e-04
 15 -1.41092378181680684e-04
 16  6.47862235069317987e-08
 17 -1.16145047887752649e-04
 18  1.50256863216073443e-04
 19  1.19514315929169623e-02
 20 -1.97827786924201872e-03
 21  2.79514078062872431e-04
 22  3.59070504577468962e-03
 23  6.38109515902777271e-05
 24  8.89148824919392620e-05
 25 -3.23375804252669277e-04
 26 -5.36558015624734601e-04
 27 -5.27961937033247296e-04
 28  4.80791354767958363e-05
 29 -2.40033797842845302e-05
 30 -2.27913893441365403e-05
 31  6.37759147194982335e-04
 32 -3.41185941562872897e-04
 33  7.78128818280685806e-05
 34  2.24041837064816812e-04
 35 -5.08592846217763555e-03
 36  2.07871541251430274e-03
 37  2.99710965101084189e-04
 38 -2.67357401837269460e-03
 39 -1.02327010122679440e-04
 40 -1.24804947309939639e-05
 41  6.15903115220759015e-06
 42 -1.28075292901003191e-05
 43  3.82850118829461755e-05
 44 -1.14978580418939741e-02
 45  3.58820296926984751e-03
 46 -2.44442679837579503e-04
 47 -1.68519127826016529e-03
 48  1.07057521912818439e-04
 49 -4.29203664224111982e-04
 50 -1.07530202175447256e-03
 51  1.86599634656572027e-05
 52 -9.71682631763062300e-05
 53  1.09825734613238987e-04
 54 -2.17371164851400308e-05
 55 -1.11957861520521723e-04
 56  5.44370431213499878e-04
 57 -8.02473617463581620e-04
 58  1.35208791772519534e-04
 59  1.20929408024526212e-03
 60  4.54597215090454896e-03
 61  3.04227510165097420e-03
 62  2.16442859166183306e-04
 63  2.28898475671670100e-03
 64  3.64070150973886200e-04
 65 -4.94269893262436330e-04
 66 -2.79488646723803177e-05
 67 -1.06754160661725421e-04
 68 -1.07257983583929520e-04
 69  2.37419008457502544e-02
 70  1.49638751777398781e-03
 71  1.05398065390670476e-03
 72  3.50472352174912172e-03
 73  4.18520346747425746e-05
 74  6.56486643627415866e-04
 75  1.37740583163813076e-04
 76  8.62049491346570458e-04
 77  6.52075980207481921e-04
 78 -1.92654861500325480e-04
 79 -9.01079000805899316e-05
 80 -6.62432773200877147e-04
 81  6.32798307593434401e-05
 82  1.90571569576410046e-04
 83  2.74113300452050591e-04
 84  2.44976911642876471e-03
 85 -8.14457548667932296e-03
 86 -4.65299367076458647e-03
 87 -7.38399074826140227e-04
 88 -4.02696897191540636e-03
 89  4.68069374336064039e-04
 90  1.26853834425219927e-03
 91  2.66978196678631732e-04
 92 -4.30238560650945086e-05
 93  1.15810305598800596e-04
 94 -1.90002141878934730e-02
 95 -3.83471596507281879e-03
 96 -8.61703664935741681e-04
 97  1.45592960323684254e-03
 98  1.78864459886523625e-04
 99 -3.40901461307918088e-04
100 -1.44126651524474018e-03
101 -5.62906663844051081e-01
102 -4.63526892255520351e-01
103  2.03354507526077579e-04
104 -6.60019516292996065e-05
105  1.88711517181816541e-04
106 -1.82679626162390793e-02
107 -3.05274373293313217e-04
108  4.66545100717341977e-04
109  1.10263415511159600e-03
110  2.50046824277270208e-02
111  1.11070428342618260e-03
112 -8.73177077736184289e-04
113 -3.04790687998419876e-03
114 -2.05809838248820963e-04
115 -4.61779223350040392e-04
116 -9.58318120697002735e-05
117 -3.21718036586574941e-04
118  2.97953002850135653e-05
119  1.33627178473680816e-02
120  1.07515651417929882e-03
121  6.48084259937271845e-04
122 -1.19663209350208324e-03
123  1.26672563881403602e-04
124 -1.20157896080649103e-03
125 -3.87830116989199046e-03
126  1.07811520478753034e-04
127 -9.70848028855136880e-04
128 -3.71064630712473944e-03
129 -2.36422995364350078e-03
130 -2.03653321587984534e-03
131  4.80901380174963771e-04
132 -1.43559330759627070e-04
133 -6.24261640376836524e-05
134  3.50541244784279818e-04
135 -1.10131036525050029e-03
136  3.30808460665698656e-04
137  2.96017631190758712e-04
138 -7.38804033940894129e-03
139  2.90734465150716860e-03
140 -1.31563156424066726e-03
141  3.98496646108196270e-04
142 -4.81900527437773745e-04
143  1.15917502007221161e-04
144  7.17957996600879157e-05
145  6.67405419795484220e-04
146 -4.20635013522754463e-04
147 -1.59859151932936448e-02
148 -5.32049008691936644e-04
149 -2.08362237370829503e-03
150  2.59162911965094564e-03
151  1.58709823505568249e-04
152  4.70920697908253376e-04
153 -5.62872421034518624e-04
154  7.23155364412407135e-05
155  6.33290008008295310e-04
156  4.59198827484958881e-04
 Sym= A
 Ene= -1.03706645134446038e+01
 Spin= Alpha
 Occup=  1.00000000000000000e+00
  1  5.62606125847397665e-01
  2  4.63123104258950757e-01
  3  3.25391140741984597e-04
  4  1.42589120597975846e-05
  5  4.11524461992622136e-04
  6  1.94090303259772286e-02
  7 -3.50292093727855259e-03
  8  8.33217019578748401e-06
  9 -3.83712802681752301e-03
 10 -1.31457319097557576e-02
 11  3.30869921096460864e-03
 12  4.74912480781580261e-04
 13  2.50210873918361618e-04
 14  1.92173379582815307e-03
 15  1.86995353849142413e-03
 16 -2.43642428056305892e-04
 17  7.46823512438068516e-04
 18 -4.48903977382933425e-05
 19  1.82794153052765751e-02
 20 -4.71066448668958342e-03
 21 -1.41471063681382217e-03
 22 -3.24927686425925135e-04
 23  3.46795555737766409e-04
 24 -8.45717681034095607e-04
 25  1.41895673659450075e-03
 26 -1.45627711697522942e-02
 27 -1.14780473407921149e-02
 28  7.09537921665456838e-04
 29 -1.76815261261350011e-05
 30  8.25765722037123239e-04
 31 -2.42278173331107564e-03
 32 -4.16092278629228395e-03
 33  1.22090273252439086e-04
 34 -5.06330036291110022e-03
 35  9.46677579398384457e-04
 36  2.63132021223185062e-04
 37 -4.03326545528200000e-04
 38  3.12589233197091594e-03
 39 -2.01447399395466480e-03
 40 -2.48181098741067762e-03
 41  1.30469462259694797e-04
 42 -2.96797334572306611e-04
 43  2.09544362227341720e-04
 44 -7.64488302550563655e-03
 45 -1.13472004265786821e-03
 46  6.03347881272069705e-04
 47 -1.25304077603023283e-04
 48 -3.35730948780975944e-04
 49  2.81405461021023040e-04
 50  1.75947065085352424e-03
 51 -1.42748399868177266e-05
 52  9.00936390100730386e-05
 53  2.18662521823989429e-04
 54  2.16201288392769984e-05
 55 -8.26045547934235199e-05
 56 -4.98585679370465006e-04
 57 -1.67937968537167060e-03
 58 -1.41153217278006875e-04
 59  4.11863095714123581e-04
 60 -3.76964529092951232e-04
 61  5.84509442629513104e-04
 62  1.57635330198011692e-04
 63 -2.48475227791184958e-04
 64  7.32022367709267473e-04
 65 -2.31349728167328677e-04
 66 -3.04842992152071613e-05
 67 -4.23555921840793471e-04
 68 -1.05280231817566453e-04
 69 -1.51018487026111942e-02
 70  2.52083940006177405e-03
 71 -1.62236993950485783e-04
 72 -3.28735277269185397e-03
 73 -1.19856874002028451e-04
 74 -4.53162901388999909e-05
 75  7.62949696237379886e-04
 76  2.87738068087901943e-05
 77  1.14378568530130290e-04
 78  1.81295681945697860e-05
 79 -2.60743192589539714e-06
 80 -3.60278572957011908e-05
 81 -5.36358940434688474e-04
 82 -4.25098408506449155e-04
 83  2.60372849228442410e-05
 84  5.05104640965558659e-04
 85  3.30732187638111731e-04
 86  1.10081159994205376e-04
 87 -2.15031049627424777e-04
 88 -1.04461585735133371e-04
 89 -1.01548550311054007e-04