[Molden Format]
[Atoms] (AU)
C    1    6         2.654475671432       0.055814226887      -0.229039677364
H    2    1         4.692980978821       0.235147453993      -0.346561428955
C    3    6         1.329745899694       0.142250580301      -2.332308402392
H    4    1         2.216500828928       0.389477932428      -4.096595925881
C    5    6        -1.329745900639      -0.142250567829      -2.332308409951
H    6    1        -2.216500837432      -0.389477941499      -4.096595923614
C    7    6        -2.654475673322      -0.055814214415      -0.229039685678
H    8    1        -4.692980961625      -0.235147480449      -0.346561425553
C    9    6        -1.398835737395       0.400661311797       2.261441507439
H   10    1        -1.595601858272       2.429931884391       2.666753511198
H   11    1        -2.437535925190      -0.557878960861       3.764087664845
C   12    6         1.398835741552      -0.400661305561       2.261441505549
H   13    1         1.595601860539      -2.429931882312       2.666753491544
H   14    1         2.437535912529       0.557878963318       3.764087674483
[GTO]
  1 0
 s    6  1.00
     4563.2400000000         0.0019666500
      682.0240000000         0.0152306000
      154.9730000000         0.0761269000
       44.4553000000         0.2608010000
       13.0290000000         0.6164620000
        1.8277300000         0.2210060000
 s    3  1.00
       20.9642000000         0.1146600000
        4.8033100000         0.9199990000
        1.4593300000        -0.0030306800
 p    3  1.00
       20.9642000000         0.0402487000
        4.8033100000         0.2375940000
        1.4593300000         0.8158540000
 s    1  1.00
        0.4834560000         1.0000000000
 p    1  1.00
        0.4834560000         1.0000000000
 s    1  1.00
        0.1455850000         1.0000000000
 p    1  1.00
        0.1455850000         1.0000000000
 d    1  1.00
        0.6260000000         1.0000000000
 s    1  1.00
        0.0438000000         1.0000000000
 p    1  1.00
        0.0438000000         1.0000000000

  2 0
 s    3  1.00
       33.8650000000         0.0254938000
        5.0947900000         0.1903730000
        1.1587900000         0.8521610000
 s    1  1.00
        0.3258400000         1.0000000000
 s    1  1.00
        0.1027410000         1.0000000000

  3 0
 s    6  1.00
     4563.2400000000         0.0019666500
      682.0240000000         0.0152306000
      154.9730000000         0.0761269000
       44.4553000000         0.2608010000
       13.0290000000         0.6164620000
        1.8277300000         0.2210060000
 s    3  1.00
       20.9642000000         0.1146600000
        4.8033100000         0.9199990000
        1.4593300000        -0.0030306800
 p    3  1.00
       20.9642000000         0.0402487000
        4.8033100000         0.2375940000
        1.4593300000         0.8158540000
 s    1  1.00
        0.4834560000         1.0000000000
 p    1  1.00
        0.4834560000         1.0000000000
 s    1  1.00
        0.1455850000         1.0000000000
 p    1  1.00
        0.1455850000         1.0000000000
 d    1  1.00
        0.6260000000         1.0000000000
 s    1  1.00
        0.0438000000         1.0000000000
 p    1  1.00
        0.0438000000         1.0000000000

  4 0
 s    3  1.00
       33.8650000000         0.0254938000
        5.0947900000         0.1903730000
        1.1587900000         0.8521610000
 s    1  1.00
        0.3258400000         1.0000000000
 s    1  1.00
        0.1027410000         1.0000000000

  5 0
 s    6  1.00
     4563.2400000000         0.0019666500
      682.0240000000         0.0152306000
      154.9730000000         0.0761269000
       44.4553000000         0.2608010000
       13.0290000000         0.6164620000
        1.8277300000         0.2210060000
 s    3  1.00
       20.9642000000         0.1146600000
        4.8033100000         0.9199990000
        1.4593300000        -0.0030306800
 p    3  1.00
       20.9642000000         0.0402487000
        4.8033100000         0.2375940000
        1.4593300000         0.8158540000
 s    1  1.00
        0.4834560000         1.0000000000
 p    1  1.00
        0.4834560000         1.0000000000
 s    1  1.00
        0.1455850000         1.0000000000
 p    1  1.00
        0.1455850000         1.0000000000
 d    1  1.00
        0.6260000000         1.0000000000
 s    1  1.00
        0.0438000000         1.0000000000
 p    1  1.00
        0.0438000000         1.0000000000

  6 0
 s    3  1.00
       33.8650000000         0.0254938000
        5.0947900000         0.1903730000
        1.1587900000         0.8521610000
 s    1  1.00
        0.3258400000         1.0000000000
 s    1  1.00
        0.1027410000         1.0000000000

  7 0
 s    6  1.00
     4563.2400000000         0.0019666500
      682.0240000000         0.0152306000
      154.9730000000         0.0761269000
       44.4553000000         0.2608010000
       13.0290000000         0.6164620000
        1.8277300000         0.2210060000
 s    3  1.00
       20.9642000000         0.1146600000
        4.8033100000         0.9199990000
        1.4593300000        -0.0030306800
 p    3  1.00
       20.9642000000         0.0402487000
        4.8033100000         0.2375940000
        1.4593300000         0.8158540000
 s    1  1.00
        0.4834560000         1.0000000000
 p    1  1.00
        0.4834560000         1.0000000000
 s    1  1.00
        0.1455850000         1.0000000000
 p    1  1.00
        0.1455850000         1.0000000000
 d    1  1.00
        0.6260000000         1.0000000000
 s    1  1.00
        0.0438000000         1.0000000000
 p    1  1.00
        0.0438000000         1.0000000000

  8 0
 s    3  1.00
       33.8650000000         0.0254938000
        5.0947900000         0.1903730000
        1.1587900000         0.8521610000
 s    1  1.00
        0.3258400000         1.0000000000
 s    1  1.00
        0.1027410000         1.0000000000

  9 0
 s    6  1.00
     4563.2400000000         0.0019666500
      682.0240000000         0.0152306000
      154.9730000000         0.0761269000
       44.4553000000         0.2608010000
       13.0290000000         0.6164620000
        1.8277300000         0.2210060000
 s    3  1.00
       20.9642000000         0.1146600000
        4.8033100000         0.9199990000
        1.4593300000        -0.0030306800
 p    3  1.00
       20.9642000000         0.0402487000
        4.8033100000         0.2375940000
        1.4593300000         0.8158540000
 s    1  1.00
        0.4834560000         1.0000000000
 p    1  1.00
        0.4834560000         1.0000000000
 s    1  1.00
        0.1455850000         1.0000000000
 p    1  1.00
        0.1455850000         1.0000000000
 d    1  1.00
        0.6260000000         1.0000000000
 s    1  1.00
        0.0438000000         1.0000000000
 p    1  1.00
        0.0438000000         1.0000000000

  10 0
 s    3  1.00
       33.8650000000         0.0254938000
        5.0947900000         0.1903730000
        1.1587900000         0.8521610000
 s    1  1.00
        0.3258400000         1.0000000000
 s    1  1.00
        0.1027410000         1.0000000000

  11 0
 s    3  1.00
       33.8650000000         0.0254938000
        5.0947900000         0.1903730000
        1.1587900000         0.8521610000
 s    1  1.00
        0.3258400000         1.0000000000
 s    1  1.00
        0.1027410000         1.0000000000

  12 0
 s    6  1.00
     4563.2400000000         0.0019666500
      682.0240000000         0.0152306000
      154.9730000000         0.0761269000
       44.4553000000         0.2608010000
       13.0290000000         0.6164620000
        1.8277300000         0.2210060000
 s    3  1.00
       20.9642000000         0.1146600000
        4.8033100000         0.9199990000
        1.4593300000        -0.0030306800
 p    3  1.00
       20.9642000000         0.0402487000
        4.8033100000         0.2375940000
        1.4593300000         0.8158540000
 s    1  1.00
        0.4834560000         1.0000000000
 p    1  1.00
        0.4834560000         1.0000000000
 s    1  1.00
        0.1455850000         1.0000000000
 p    1  1.00
        0.1455850000         1.0000000000
 d    1  1.00
        0.6260000000         1.0000000000
 s    1  1.00
        0.0438000000         1.0000000000
 p    1  1.00
        0.0438000000         1.0000000000

  13 0
 s    3  1.00
       33.8650000000         0.0254938000
        5.0947900000         0.1903730000
        1.1587900000         0.8521610000
 s    1  1.00
        0.3258400000         1.0000000000
 s    1  1.00
        0.1027410000         1.0000000000

  14 0
 s    3  1.00
       33.8650000000         0.0254938000
        5.0947900000         0.1903730000
        1.1587900000         0.8521610000
 s    1  1.00
        0.3258400000         1.0000000000
 s    1  1.00
        0.1027410000         1.0000000000

[5D]
[9G]

[MO]
 Sym= A
 Ene= -1.37378007700374472e+01
 Spin= Alpha
 Occup=  1.00000000000000000e+00
  1 -7.72150400121070972e-05
  2  4.06529994059490738e-04
  3 -1.88448998383332220e-04
  4 -2.37224536933772371e-05
  5 -4.12318442185998109e-04
  6 -2.28245098823718056e-03
  7  2.61686787859713183e-03
  8  4.00834711559625679e-05
  9  3.81521030955602782e-03
 10 -1.08206721768006834e-02
 11  4.38643515175093576e-03
 12  3.95772237670144976e-04
 13 -1.66619509616145064e-03
 14 -5.95958708958919297e-04
 15 -2.10182887779460743e-03
 16 -1.41567348795277947e-04
 17  3.63796089017080177e-05
 18  1.65248435551991799e-04
 19  1.60294026277896517e-02
 20 -3.80417370683843641e-03
 21  8.40806368006120951e-04
 22 -5.54524375069375373e-03
 23 -3.19710130189454500e-04
 24 -5.54941035874724291e-04
 25  1.24399161226231665e-03
 26 -1.46098798916100562e-04
 27  7.28919586653823466e-04
 28 -2.46477467943227984e-03
 29 -1.98248655480209109e-04
 30 -3.82897251871288789e-04
 31 -1.18967233508099172e-03
 32  1.18338766035199910e-02
 33  8.69860399525895626e-04
 34  2.93304432239948872e-03
 35  1.38755184820303773e-02
 36 -9.57155433326560730e-03
 37 -1.29187990631363016e-03
 38  9.21333882126590051e-03
 39  4.33383366974159686e-03
 40  1.00163934100071152e-03
 41 -3.41964130758899904e-04
 42 -4.95567902189375433e-03
 43 -1.33192278465479657e-03
 44 -5.07930830963904331e-02
 45  4.72107180891865805e-03
 46 -4.78635880500861228e-04
 47 -4.95645406107878862e-03
 48 -9.02689690315753158e-04
 49  1.43879016590891195e-03
 50  6.03106005209702763e-03
 51 -6.23709669830870062e-01
 52 -4.21411492795029374e-01
 53 -2.54483749032699482e-04
 54 -2.56622937896988342e-04
 55 -2.19261140639691191e-03
 56  5.95717331435506037e-02
 57 -3.13892011564509735e-04
 58  1.51710174394841814e-03
 59  1.47940981674742310e-02
 60 -4.93581005676184403e-02
 61 -7.26684197568601940e-03
 62 -1.67891762781161827e-03
 63 -1.38042077012108470e-02
 64  2.09697452270230043e-03
 65 -6.59767451205587815e-03
 66  3.44396934956984352e-04
 67  5.32393718838183524e-03
 68  4.59737409282957941e-04
 69  8.43396272232284777e-02
 70  4.94866908327586813e-03
 71  2.05771992914036616e-03
 72  1.80673239526144419e-02
 73  2.89342786886609090e-04
 74 -3.10979499223768430e-03
 75  2.81944770232883191e-03
 76 -4.30296633285408476e-04
 77  1.87107131615308806e-03
 78  1.17830517507475541e-03
 79 -1.45867431669211326e-04
 80 -2.47141757760664877e-03
 81 -7.44610725143070220e-03
 82 -9.17451097059397008e-03
 83  9.38391711153325472e-04
 84  1.75643354117167028e-02
 85  6.72567183444211774e-03
 86  1.00151012993359555e-02
 87  1.90340802588095617e-05
 88 -3.94327511662292789e-03
 89 -5.36129597125638551e-03
 90  8.59702726790009288e-03
 91 -3.07930610160385854e-04
 92 -2.03247049939973877e-03
 93  4.99707498810029690e-04
 94 -4.01631962132009759e-02
 95 -3.78515792956491673e-03
 96  1.54582911838862147e-03
 97  1.03573562485437601e-02
 98 -1.13425817144917622e-03
 99  7.51379777987244658e-04
100  5.92943523835537736e-03
101 -5.61402397312816412e-05
102  3.46009259847350546e-04
103 -2.72836672775961448e-04
104 -1.98042323907473914e-05
105 -4.60925807195071847e-04
106 -1.21126246773096600e-03
107  1.30855023822239679e-03
108  3.23232455097337160e-04
109  2.84134743785366710e-03
110 -5.88541893020648119e-03
111 -2.32722705669268686e-03
112  2.10074712571868072e-03
113  5.22226446175326161e-04
114 -1.16312362785943313e-03
115 -1.32090096028548423e-03
116 -4.82536859468864123e-04
117  2.65109745272955192e-04
118 -6.48085208379887252e-05
119  1.19322161297995971e-02
120  5.88052633088767800e-03
121 -2.67540067768550329e-03
122  1.62737829881056425e-03
123  1.81114833869723720e-04
124 -8.12024636496688421e-04
125 -4.77590230470533730e-04
126 -3.77826246239793201e-04
127  5.14891147406302944e-04
128  5.81440779332089222e-04
129 -4.45503679480700553e-05
130  2.88577942613806330e-04
131 -3.55165372883841973e-05
132  7.51071608841882257e-05
133 -6.02851442759932618e-05
134 -1.95595214162812541e-03
135  3.57156963948622333e-04
136 -4.17602810297138568e-04
137  7.73848169091596351e-04
138  9.55111260864570898e-03
139 -1.77636207840974514e-03
140  3.52797488759712895e-04
141 -2.92420237230269289e-03
142  3.07628641635039062e-05
143  4.53441458610892654e-04
144  6.76533225214149408e-05
145 -5.04270357595456781e-05
146  1.19238732125183868e-04
147 -2.24789201507449958e-02
148  8.22569189727999882e-03
149 -3.15900627282782284e-04
150  1.74310785157014386e-03
151  2.42830390591141412e-04
152 -1.79777165642419005e-03
153  2.10932160728733147e-03
154 -7.56747075443023977e-05
155 -6.63353776967299407e-04
156  1.62174785159655195e-03
 Sym= A
 Ene= -1.15211776154875558e+01
 Spin= Alpha
 Occup=  1.00000000000000000e+00
  1 -3.14130651766799632e-05
  2 -3.30565927849822165e-05
  3  6.13485321672806720e-06
  4 -7.31338410183285951e-07
  5  6.01379860204730397e-06
  6  4.27141262049758570e-05
  7 -3.52565917183719080e-05
  8  3.33854285879838035e-06
  9 -6.16544481369403198e-05
 10 -5.80857143527296966e-05
 11  6.87536773443208878e-05
 12 -1.46388200418442429e-06
 13  9.38196624771078298e-05
 14  1.44752192161975164e-05
 15  1.93520809611991201e-05
 16 -3.78428082698072400e-06
 17  6.79377479847076093e-07
 18 -5.47238335092876598e-06
 19  9.59848464488825348e-04
 20 -5.34591312512816167e-05
 21  7.13481847271633029e-05
 22 -9.27812454803309894e-04
 23  6.92974928032068662e-06
 24 -1.06490651701122699e-05
 25 -2.85731132368365291e-05
 26 -3.70675628614694651e-05
 27 -3.99235461434313931e-05
 28  1.97178528028846872e-05
 29  2.22909653881557024e-06
 30 -3.03469897739842559e-06
 31  5.85412395242043519e-05
 32 -1.33463180831774962e-04
 33 -1.07384303141801402e-05
 34 -1.03105774060071164e-05
 35 -3.07513196184340320e-05
 36  1.58755443913010931e-04
 37  1.19247034152803498e-05
 38 -3.85271363384276156e-06
 39 -4.35946889915639799e-05
 40 -4.92421381111815765e-05
 41 -4.36110296971069423e-06
 42  1.90615392114048246e-05
 43  3.51889835740559724e-06
 44  6.39337195361108822e-05
 45 -1.03847894399225179e-03
 46 -4.15915099565992215e-05
 47 -6.29515163802929641e-04
 48  7.26209395305113949e-06
 49 -8.77051674087053756e-06
 50 -4.61169658054840466e-05
 51 -3.56608387140457562e-04
 52 -3.44835969942838870e-04
 53 -1.74790917367228566e-04
 54  1.52739678193032023e-05
 55  3.01112798302985809e-04
 56  7.40737286062691539e-04
 57 -3.62374552580835198e-04
 58  3.06598860216348742e-06
 59  4.43773023868154477e-04
 60 -6.76159843780931588e-04
 61  2.82685160335413696e-04
 62  2.63595654136774423e-05
 63 -2.19103348759265017e-04
 64  1.40646650644230952e-04
 65 -2.74368120073805431e-04
 66 -8.98532013641060045e-06
 67 -6.62127603730409888e-05
 68 -4.01464543881846085e-05
 69  4.82970943483004551e-05
 70 -1.28692021022799321e-03
 71 -1.87807012416932567e-04
 72  5.99470389433942835e-04
 73  2.72956864154861831e-05
 74  4.35154350232005264e-05
 75 -7.13422950536420131e-06
 76  5.63603302286134866e-01
 77  4.66750935060056382e-01
 78  4.82027624047524537e-04
 79 -9.90605223184902478e-05
 80 -8.77885857276135620e-04
 81  2.81278782994461582e-03
 82 -3.87031142557211073e-04
 83  7.96265903460923363e-05
 84  7.07183900852114810e-04
 85  2.31494387533367867e-04
 86  3.85961855483415918e-04
 87 -5.26393112901846373e-05
 88 -4.96694610989993515e-04
 89  3.15047770792158122e-04
 90  1.37401327828354518e-04
 91  1.50548939240270272e-04
 92  6.69244732686927126e-04
 93  1.34348542320011824e-04
 94 -7.19717554619215931e-04
 95  4.09852494591065523e-04
 96  3.12195267948100314e-04
 97  1.16612327717551542e-03
 98  3.47400732869307112e-04
 99 -1.87880976342096496e-04
100  5.41329924726055502e-04
101  2.23290836909107197e-03
102  1.80368129152778142e-03
103 -6.83769552256276793e-05
104 -3.17936538090865539e-05
105 -1.35712557016014955e-04
106  2.88309183475296690e-04
107 -2.90599914398325220e-05
108 -8.88094099464172086e-06
109 -8.78217725206449998e-05
110 -4.89326628558269341e-04
111 -1.65896315304647584e-04
112  4.08700362107784621e-05
113  4.55243873996671075e-05
114  2.80349940993746054e-05
115  2.21502550651651692e-05
116  2.72390344333286719e-06
117 -5.70440097203331925e-05
118  4.82589825943191689e-06
119 -4.88363806713557514e-04
120  4.09429149676027431e-04
121 -1.98859329912876167e-04
122  2.80426559752439727e-04
123 -2.06023654220891032e-05
124  7.57815855872380272e-05
125  6.49585448431664928e-06
126 -6.65809472266457269e-06
127  8.76108832360256683e-05
128 -7.42096439323519056e-05
129 -1.50466183448922515e-05
130 -1.52933848941291899e-05
131  1.02506822365659267e-05
132 -4.76184036666364860e-06
133  6.51144006807481938e-06
134 -9.36091336969868966e-06
135 -3.19488903323959702e-05
136  1.76998665410190491e-05
137 -1.93056428629565180e-05
138  2.64904065991334572e-04
139 -1.27267915029893733e-04
140  2.00084908908159339e-05
141  4.47716722713778777e-05
142 -6.21722860039398461e-06
143  4.85862122848797132e-06
144 -2.69068504710108321e-06
145  6.33745478390814116e-06
146 -1.27177457709115667e-05
147  1.87676780403591288e-04
148  5.58439106318653301e-04
149  9.12184370528582662e-05
150 -2.38032533032516238e-04
151  3.78871648091350163e-06
152 -3.47763464087855070e-05
153  9.13633747444055568e-06
154  4.98011394190361013e-06
155 -1.19476688368919062e-05
156 -4.65085048075423278e-05
 Sym= A
 Ene= -1.14412143438489586e+01
 Spin= Alpha
 Occup=  1.00000000000000000e+00
  1 -3.96548349360530544e-02
  2 -3.28381827826298087e-02
  3  1.55938589506012632e-04
  4 -1.19560834706788793e-05
  5  2.48480736718814513e-04
  6 -3.72628146342493473e-04
  7 -2.25272929636012885e-04
  8  3.30612899557627496e-05
  9 -4.36333484373369279e-04
 10  5.22590409049319559e-04
 11 -1.21956841740621197e-04
 12 -8.08867279192640069e-05
 13  2.90025060509528176e-04
 14  1.55888508908473572e-04
 15  8.63606457172393555e-05
 16 -3.84717609085773960e-05
 17  1.32650211525175792e-04
 18  1.65649391538815746e-05
 19  1.21412502467929152e-03
 20  2.39128178632044478e-04
 21  2.82343982063138822e-04
 22 -8.86343102395114246e-04
 23 -2.87022888559427938e-05
 24  2.44243670474180318e-05
 25 -8.73058126738304030e-05
 26 -5.62006572810125227e-01
 27 -4.65458334679027363e-01
 28  1.52212078766989401e-03
 29  1.31484991473354931e-04
 30  1.20891946996552009e-04
 31 -3.84585561283725362e-03
 32 -1.79815720482603232e-03
 33 -1.00965549194812667e-04
 34 -6.72190768885063284e-04
 35  3.14877415656417625e-04
 36  7.96023487440479884e-04
 37  9.50862170471701443e-05
 38  6.19869985270598639e-05
 39 -8.31060343845049440e-04
 40 -4.01281077635148495e-04
 41  1.20381834725108206e-04
 42 -2.01989994369096009e-04
 43  5.66096953172680022e-06
 44 -2.35363316337446949e-04
 45 -1.33130708111917442e-03
 46 -1.22428981751294844e-04
 47 -1.53173699879262815e-03
 48 -3.84954557732604147e-04
 49  2.52454209623950731e-04
 50 -7.03696706072169014e-04
 51  1.92711251238736418e-04
 52  2.43466191768684499e-04
 53 -2.09590799114130151e-04
 54 -2.28960008277238578e-05
 55 -1.87409622932903706e-05
 56 -6.40297837053447564e-04
 57 -8.74026567847114677e-04
 58 -8.39823880951763807e-05
 59  1.21442645499977844e-04
 60  5.51201941945921839e-05
 61  3.34658403973552194e-04
 62  4.59385317413704648e-06
 63 -4.34080180256062075e-04
 64  3.18977421871945545e-04
 65 -8.97649153622299869e-05
 66 -9.90246800441682918e-06
 67 -2.69484806985356424e-04
 68 -5.83865394131724742e-05
 69  2.30142552545272491e-03
 70 -1.74253152093395902e-03
 71 -1.13650473707003512e-04
 72  1.57563810922261324e-03
 73 -2.69204922170745771e-05
 74 -9.24105401023637437e-05
 75 -3.28050779407320630e-05
 76 -4.95134966129012654e-05
 77 -1.79870153408183567e-05
 78  6.43358941088186382e-06
 79 -6.65776171430330540e-06
 80 -1.64301402909134588e-05
 81 -1.73887182419546818e-04
 82 -1.02036795711818521e-04
 83  2.76694673648865942e-05
 84  1.83714199987573129e-04
 85  5.67142663687716410e-04
 86  3.70822448408128806e-04
 87  6.10709882158168400e-06
 88 -1.76713980419637863e-04
 89 -1.08150507021438424e-05
 90  9.58321659135158497e-05
 91  2.73819635074023521e-06
 92  7.79074240211920896e-07
 93  1.84771013989339536e-05
 94 -3.63792682160059408e-03
 95 -3.24598055398995448e-04
 96  1.85670155130076133e-04
 97  1.61332640070771527e-03
 98 -1.92066214937535612e-05
 99  3.35383069957353276e-05
100  1.53022120735055877e-04
101  2.55945232362836319e-04
102  2.15082965327267840e-04
103 -6.31206216871631128e-06
104 -2.21727277143375493e-06
105 -1.58154265275752730e-05
106  9.34240548729876018e-06
107  4.65018143395680284e-05
108  8.27920093779569913e-06
109  6.61241389056646593e-05
110 -2.53324499212645969e-04
111 -1.06030689055645427e-04
112 -7.86195124271648422e-06
113  1.86674890148584524e-05
114 -2.55819696987661405e-05
115 -1.90614049791139129e-05
116 -6.17257126082341801e-06
117  4.66859564658752763e-06
118 -2.12725382702061366e-06
119 -9.81525518943541017e-05
120  7.19198692625352466e-04
121  8.70064059328940831e-05
122  2.23550737974995931e-04
123 -7.78673412080607088e-06
124  4.64565170430443353e-05
125 -4.43120209843703543e-05
126 -2.69342541193118088e-06
127  1.20677105026421631e-06
128  1.67691291169461369e-05
129 -2.69507000615480587e-04
130 -2.18445450469673824e-04
131 -1.20976158178572720e-05
132 -5.05412445837533472e-07
133  2.46371845613400956e-07
134 -3.05437240278505679e-05
135  2.29688864400158399e-05
136 -5.80263384935744156e-06
137  2.52240319861916268e-05
138 -1.35879172193455286e-04
139 -1.18232533277657766e-04
140  4.70657370672198031e-05
141  7.27286582505434813e-05
142 -1.74120101670139244e-06
143 -2.32430886940186357e-05
144 -5.99318674456549491e-07
145  5.03372748434405371e-06
146  5.45907189422550968e-06
147  4.06977541137107336e-04
148  3.85937200106151851e-04
149 -2.23387434542541836e-04
150 -4.36020536236689184e-04
151  1.89528340339105618e-06
152  2.52618556827786455e-05
153  1.00790158453138183e-06
154  4.60757063456406945e-06
155 -2.78276903963862596e-05
156  7.40288950152267707e-05
 Sym= A
 Ene= -1.14323039153815902e+01
 Spin= Alpha
 Occup=  1.00000000000000000e+00
  1 -2.57804390180524114e-05
  2 -2.05918249217556195e-05
  3 -5.09398490368675190e-07
  4  2.02176576732460195e-06
  5 -2.08517002662768981e-06
  6 -1.80743143031183523e-05
  7  2.38520850643569099e-05
  8 -1.30035594845209366e-05
  9  4.45675087660590166e-06
 10 -2.95383324884585083e-04
 11  7.59820080883093110e-05
 12  2.66715836337698885e-06
 13  5.60462564947468610e-05
 14  6.96341378488417633e-06
 15 -1.02146975911714150e-05
 16 -8.39727455412711325e-06
 17  8.68607238189149563e-06
 18 -8.35578422662956217e-06
 19 -2.39782713064864116e-03
 20  3.93116109923811530e-04
 21 -1.40276348058158792e-05
 22 -4.86498412791446996e-04
 23  2.40560698644051053e-07
 24  5.90815728799615245e-06
 25  6.56184361473726336e-05
 26  2.57947789658836708e-04
 27  2.16142579594406952e-04
 28  3.59515049971943168e-06
 29  2.50344671269357861e-06
 30  1.83082706679176303e-06
 31 -3.25747801587140289e-05
 32 -1.75353938505571929e-05
 33 -1.55602225282439464e-05
 34 -1.88472884129869245e-05
 35  5.65811551129136734e-04
 36 -1.78223415310307281e-04
 37 -1.80889782865803897e-05
 38  2.48982703585141994e-04
 39 -3.60907259027086990e-06
 40  3.43426783083242361e-06
 41  7.97894399570691654e-07
 42  1.64601281905580068e-05
 43 -4.67469489546628519e-07
 44  2.06640537015841466e-03
 45 -4.82047278716046703e-04
 46  3.11117187095096858e-05
 47  2.84574692588330819e-04
 48 -4.72952072129958654e-06
 49  3.57103640536398295e-05
 50  6.27064685276862584e-05
 51  8.14723936225858895e-06
 52  4.23755456129882699e-06
 53  2.33243370100068489e-06
 54  2.59583675247497765e-06
 55 -6.25127455885499083e-06
 56  2.48661255106706081e-05
 57 -2.10011530374305244e-05
 58 -1.39033922152929963e-05
 59 -4.49897325846703090e-06
 60 -5.93260221753783490e-04
 61 -3.45764368926888637e-04
 62 -3.34789749142203576e-05
 63 -3.64091356045210548e-04
 64  1.78322442997113925e-05
 65 -1.08891192869316392e-05
 66  5.83829041852891897e-06
 67 -1.01882060959305842e-05
 68 -2.57987602806687424e-07
 69 -2.87527193859481991e-03
 70 -3.13474725230848737e-04
 71 -1.42056265260055644e-04
 72 -4.01546800130350018e-04
 73  9.44055673863691992e-06
 74 -7.81538603223807545e-05
 75 -6.12233908989486740e-05
 76 -2.34326447790454001e-03
 77 -2.02108352498333492e-03
 78  5.95762386295179336e-05
 79  2.05715133438995948e-05
 80  1.20235059592790192e-04
 81  2.75575474080169669e-04
 82  1.92802485221519514e-04
 83  5.97083682563577113e-05
 84  3.87156386469144275e-04
 85  1.30398972755240935e-03
 86  6.36712727965208728e-04
 87  9.16472183275546422e-05
 88  4.50199535317530081e-04
 89  1.13408749614714142e-04
 90  1.60049223255230897e-04
 91  3.57745469595779984e-05
 92  2.46531661382661110e-05
 93  2.34413203977639074e-05
 94  2.44265286625000621e-03
 95  4.18253901786774752e-04
 96  1.35202346838262223e-04
 97  2.42517585322579490e-05
 98 -6.02217124545891854e-06
 99  3.97846108585796996e-05
100  1.31264429646485296e-04
101  5.63308952166333032e-01
102  4.66451927630324281e-01
103 -1.80961458388288716e-04
104 -9.48728394494201548e-05
105 -6.23460430438694830e-04
106  4.72367348350626135e-03
107  4.55048901452855082e-05
108  1.07656241385520473e-04
109  4.31419689537879104e-04
110 -3.34082155423980889e-03
111 -2.32246153117157732e-04
112  9.28342152698362713e-05
113  2.39765431359208626e-04
114 -5.85865048535673963e-05
115 -1.16838341010578819e-04
116 -6.48514419484849897e-05
117 -8.82497250356718284e-05
118  3.77396573966505769e-05
119 -2.52433574839039257e-03
120 -7.71156364568146018e-05
121 -2.28550870398223445e-05
122  2.88733712568690199e-04
123  3.14422908416493523e-04
124  2.16046324169312824e-04
125  6.08901309845671815e-04
126  3.24730257613653733e-04
127  1.62230624684004066e-04
128  6.38593647902319160e-04
129  7.02433073524321924e-03
130  5.76050604182469332e-03
131 -1.12699516601110075e-04
132  3.87274488021513370e-05
133  5.21153091004234285e-07
134  2.60664418497206910e-04
135 -3.15952576111663732e-04
136  6.92291033768544780e-05
137 -1.96871608863867662e-05
138  1.02681846361569388e-03
139 -4.08107044341282329e-04
140  1.92908882242934677e-04
141  3.48359448258866511e-05
142 -7.28181572757098775e-05
143  2.97344728910767510e-05
144 -6.03030345970861595e-07
145  9.34729476860974320e-05
146 -5.67246089715508741e-05
147  2.96191512346336526e-03
148 -1.79592065077508680e-06
149  2.89140395225929905e-04
150 -5.21694688432336700e-04
151 -6.32165483294652482e-07
152 -3.58223042916682011e-05
153 -1.57341873536304519e-05
154  9.94328424481530327e-06
155 -7.84119121519871672e-05
156 -1.40295206755890672e-04
 Sym= A
 Ene= -1.14278535455189516e+01
 Spin= Alpha
 Occup=  1.00000000000000000e+00
  1  5.61599120009268371e-01
  2  4.65213207734715806e-01
  3 -1.13208439778413533e-04
  4 -3.19401076455222505e-07
  5  9.87088787400969953e-05
  6  5.47606787810424930e-03
  7 -3.12624710964636400e-04
  8  2.47994121496857054e-05
  9 -7.30619913921733599e-04
 10 -1.84474482574502308e-03
 11  5.55215997871594345e-04
 12  1.05528538057519475e-04
 13 -1.08204442885170716e-05
 14  1.85154687787475258e-04
 15  3.89473736530578107e-04
 16  5.40741424859624524e-06
 17  1.08689993005060018e-04
 18 -1.64994302778445355e-05
 19  2.41708291117279138e-03
 20 -7.43544730722896317e-04
 21 -2.60119266382584401e-04
 22 -7.17290092544319957e-05
 23  4.25911716718941854e-04
 24 -1.68478686339787286e-04
 25  2.66589419635090584e-04
 26 -3.99514657130795106e-02
 27 -3.31274001483249370e-02
 28  2.84872773578176105e-04
 29 -4.36136891507761561e-06
 30  2.90045032715744995e-04
 31 -9.55574587553378424e-05
 32 -3.67279213036152716e-04
 33  7.29971353792279310e-07
 34 -3.08740605586008371e-04
 35  2.87061430672009199e-04
 36 -4.42071098032842887e-05
 37 -8.06871225914910985e-05
 38  4.98866883090420170e-04
 39 -1.78557278551530208e-04
 40 -1.24032830638616206e-04
 41  2.89560705699586278e-05
 42 -1.09919414706672827e-04
 43 -7.35885534399386385e-06
 44 -9.80616208489583580e-04
 45 -1.25305914168599795e-04
 46  1.23690800436808418e-04
 47  7.73092153442226390e-05
 48 -4.68411609919989756e-05
 49  6.67577088374417303e-05
 50  2.09927935661750415e-04
 51  2.03119281809136856e-05
 52  2.77069093497645071e-05
 53 -8.10664647926878575e-06
 54  8.41591432792068517e-07
 55 -1.58751799575453860e-05
 56 -7.47056365095351396e-05
 57 -1.81312810399821131e-04
 58 -1.67477539553561154e-05
 59  5.39998524469276306e-05
 60 -1.38051967891456229e-04
 61 -6.09363259571795546e-06
 62  2.33882324866852245e-05
 63 -7.16659220842880737e-05
 64  8.08426573125784679e-05
 65 -5.67148293300289374e-07
 66 -1.65394891099695876e-06
 67 -4.85245518427299442e-05
 68 -1.26309294674802913e-05
 69 -2.93215905950159868e-03
 70  5.25972547884090836e-04
 71 -3.91484480360263212e-05
 72 -6.79591577834665322e-04
 73 -1.13407014015568640e-05
 74 -6.36803378934215930e-06
 75  8.53243286584771271e-05
 76  3.13943769181734960e-05
 77  3.26493126018130521e-05
 78 -1.38519940132656608e-06
 79 -1.56381215205548722e-06
 80 -4.69663090785762303e-06
 81 -3.65686895396326401e-05
 82 -3.30158040279967234e-05
 83  6.09328651690054041e-06
 84  4.86024468793580961e-05
 85  1.92591027194226383e-05
 86 -4.39214739942512468e-05
 87 -5.00770318146421091e-05
 88  4.46583112956715318e-06
 89  1.65552634871978969e-06