[Molden Format]
[Atoms] (AU)
C    1    6         2.688203947216       0.126267316038      -0.211284584910
H    2    1         4.728095907479       0.359456870713      -0.218011119477
C    3    6         1.369782617967       0.204435981782      -2.374855666231
H    4    1         2.318345438850       0.530982748944      -4.165937681460
C    5    6        -1.369782617967      -0.204435981782      -2.374855666231
H    6    1        -2.318345438850      -0.530982748944      -4.165937681460
C    7    6        -2.688203947216      -0.126267316038      -0.211284584910
H    8    1        -4.728095907290      -0.359456870902      -0.218011119477
C    9    6        -1.377448045575       0.458746757807       2.255586404767
H   10    1        -1.428727068278       2.518961490447       2.552818698465
H   11    1        -2.401900037590      -0.368832778254       3.849461186775
C   12    6         1.377448045575      -0.458746757807       2.255586404767
H   13    1         1.428727068278      -2.518961490069       2.552818698465
H   14    1         2.401900037401       0.368832778065       3.849461186397
[GTO]
  1 0
 s    6  1.00
     4563.2400000000         0.0019666500
      682.0240000000         0.0152306000
      154.9730000000         0.0761269000
       44.4553000000         0.2608010000
       13.0290000000         0.6164620000
        1.8277300000         0.2210060000
 s    3  1.00
       20.9642000000         0.1146600000
        4.8033100000         0.9199990000
        1.4593300000        -0.0030306800
 p    3  1.00
       20.9642000000         0.0402487000
        4.8033100000         0.2375940000
        1.4593300000         0.8158540000
 s    1  1.00
        0.4834560000         1.0000000000
 p    1  1.00
        0.4834560000         1.0000000000
 s    1  1.00
        0.1455850000         1.0000000000
 p    1  1.00
        0.1455850000         1.0000000000
 d    1  1.00
        0.6260000000         1.0000000000
 s    1  1.00
        0.0438000000         1.0000000000
 p    1  1.00
        0.0438000000         1.0000000000

  2 0
 s    3  1.00
       33.8650000000         0.0254938000
        5.0947900000         0.1903730000
        1.1587900000         0.8521610000
 s    1  1.00
        0.3258400000         1.0000000000
 s    1  1.00
        0.1027410000         1.0000000000

  3 0
 s    6  1.00
     4563.2400000000         0.0019666500
      682.0240000000         0.0152306000
      154.9730000000         0.0761269000
       44.4553000000         0.2608010000
       13.0290000000         0.6164620000
        1.8277300000         0.2210060000
 s    3  1.00
       20.9642000000         0.1146600000
        4.8033100000         0.9199990000
        1.4593300000        -0.0030306800
 p    3  1.00
       20.9642000000         0.0402487000
        4.8033100000         0.2375940000
        1.4593300000         0.8158540000
 s    1  1.00
        0.4834560000         1.0000000000
 p    1  1.00
        0.4834560000         1.0000000000
 s    1  1.00
        0.1455850000         1.0000000000
 p    1  1.00
        0.1455850000         1.0000000000
 d    1  1.00
        0.6260000000         1.0000000000
 s    1  1.00
        0.0438000000         1.0000000000
 p    1  1.00
        0.0438000000         1.0000000000

  4 0
 s    3  1.00
       33.8650000000         0.0254938000
        5.0947900000         0.1903730000
        1.1587900000         0.8521610000
 s    1  1.00
        0.3258400000         1.0000000000
 s    1  1.00
        0.1027410000         1.0000000000

  5 0
 s    6  1.00
     4563.2400000000         0.0019666500
      682.0240000000         0.0152306000
      154.9730000000         0.0761269000
       44.4553000000         0.2608010000
       13.0290000000         0.6164620000
        1.8277300000         0.2210060000
 s    3  1.00
       20.9642000000         0.1146600000
        4.8033100000         0.9199990000
        1.4593300000        -0.0030306800
 p    3  1.00
       20.9642000000         0.0402487000
        4.8033100000         0.2375940000
        1.4593300000         0.8158540000
 s    1  1.00
        0.4834560000         1.0000000000
 p    1  1.00
        0.4834560000         1.0000000000
 s    1  1.00
        0.1455850000         1.0000000000
 p    1  1.00
        0.1455850000         1.0000000000
 d    1  1.00
        0.6260000000         1.0000000000
 s    1  1.00
        0.0438000000         1.0000000000
 p    1  1.00
        0.0438000000         1.0000000000

  6 0
 s    3  1.00
       33.8650000000         0.0254938000
        5.0947900000         0.1903730000
        1.1587900000         0.8521610000
 s    1  1.00
        0.3258400000         1.0000000000
 s    1  1.00
        0.1027410000         1.0000000000

  7 0
 s    6  1.00
     4563.2400000000         0.0019666500
      682.0240000000         0.0152306000
      154.9730000000         0.0761269000
       44.4553000000         0.2608010000
       13.0290000000         0.6164620000
        1.8277300000         0.2210060000
 s    3  1.00
       20.9642000000         0.1146600000
        4.8033100000         0.9199990000
        1.4593300000        -0.0030306800
 p    3  1.00
       20.9642000000         0.0402487000
        4.8033100000         0.2375940000
        1.4593300000         0.8158540000
 s    1  1.00
        0.4834560000         1.0000000000
 p    1  1.00
        0.4834560000         1.0000000000
 s    1  1.00
        0.1455850000         1.0000000000
 p    1  1.00
        0.1455850000         1.0000000000
 d    1  1.00
        0.6260000000         1.0000000000
 s    1  1.00
        0.0438000000         1.0000000000
 p    1  1.00
        0.0438000000         1.0000000000

  8 0
 s    3  1.00
       33.8650000000         0.0254938000
        5.0947900000         0.1903730000
        1.1587900000         0.8521610000
 s    1  1.00
        0.3258400000         1.0000000000
 s    1  1.00
        0.1027410000         1.0000000000

  9 0
 s    6  1.00
     4563.2400000000         0.0019666500
      682.0240000000         0.0152306000
      154.9730000000         0.0761269000
       44.4553000000         0.2608010000
       13.0290000000         0.6164620000
        1.8277300000         0.2210060000
 s    3  1.00
       20.9642000000         0.1146600000
        4.8033100000         0.9199990000
        1.4593300000        -0.0030306800
 p    3  1.00
       20.9642000000         0.0402487000
        4.8033100000         0.2375940000
        1.4593300000         0.8158540000
 s    1  1.00
        0.4834560000         1.0000000000
 p    1  1.00
        0.4834560000         1.0000000000
 s    1  1.00
        0.1455850000         1.0000000000
 p    1  1.00
        0.1455850000         1.0000000000
 d    1  1.00
        0.6260000000         1.0000000000
 s    1  1.00
        0.0438000000         1.0000000000
 p    1  1.00
        0.0438000000         1.0000000000

  10 0
 s    3  1.00
       33.8650000000         0.0254938000
        5.0947900000         0.1903730000
        1.1587900000         0.8521610000
 s    1  1.00
        0.3258400000         1.0000000000
 s    1  1.00
        0.1027410000         1.0000000000

  11 0
 s    3  1.00
       33.8650000000         0.0254938000
        5.0947900000         0.1903730000
        1.1587900000         0.8521610000
 s    1  1.00
        0.3258400000         1.0000000000
 s    1  1.00
        0.1027410000         1.0000000000

  12 0
 s    6  1.00
     4563.2400000000         0.0019666500
      682.0240000000         0.0152306000
      154.9730000000         0.0761269000
       44.4553000000         0.2608010000
       13.0290000000         0.6164620000
        1.8277300000         0.2210060000
 s    3  1.00
       20.9642000000         0.1146600000
        4.8033100000         0.9199990000
        1.4593300000        -0.0030306800
 p    3  1.00
       20.9642000000         0.0402487000
        4.8033100000         0.2375940000
        1.4593300000         0.8158540000
 s    1  1.00
        0.4834560000         1.0000000000
 p    1  1.00
        0.4834560000         1.0000000000
 s    1  1.00
        0.1455850000         1.0000000000
 p    1  1.00
        0.1455850000         1.0000000000
 d    1  1.00
        0.6260000000         1.0000000000
 s    1  1.00
        0.0438000000         1.0000000000
 p    1  1.00
        0.0438000000         1.0000000000

  13 0
 s    3  1.00
       33.8650000000         0.0254938000
        5.0947900000         0.1903730000
        1.1587900000         0.8521610000
 s    1  1.00
        0.3258400000         1.0000000000
 s    1  1.00
        0.1027410000         1.0000000000

  14 0
 s    3  1.00
       33.8650000000         0.0254938000
        5.0947900000         0.1903730000
        1.1587900000         0.8521610000
 s    1  1.00
        0.3258400000         1.0000000000
 s    1  1.00
        0.1027410000         1.0000000000

[5D]
[9G]

[MO]
 Sym= A
 Ene= -1.37467384728404642e+01
 Spin= Alpha
 Occup=  1.00000000000000000e+00
  1  6.27959043956319497e-05
  2 -3.37728231415694417e-04
  3  1.85372077274680578e-04
  4  3.55503134108366882e-05
  5  3.94855543250731400e-04
  6  1.64479800914635755e-03
  7 -2.15435011144258842e-03
  8 -1.15603089399149946e-04
  9 -3.23260406114317693e-03
 10  1.13049403880054068e-02
 11 -5.16299337069589699e-03
 12 -6.44848306939331539e-04
 13  1.76341297107893103e-03
 14  6.06988001350733906e-04
 15  1.70212908398120364e-03
 16  1.45126292170996387e-04
 17 -7.81088373245803093e-05
 18 -1.69700450541357780e-04
 19 -1.82200874494537340e-02
 20  4.15484035242326150e-03
 21 -1.39227139254068208e-03
 22  9.39161879101634185e-03
 23  2.37127187619965633e-04
 24  7.50229049012681218e-04
 25 -1.04888445974769275e-03
 26  9.01895111853889808e-05
 27 -5.06445648896008331e-04
 28  2.19281607786261240e-03
 29  2.57756599358120741e-04
 30  3.42986243686298176e-04
 31  6.02002894684791883e-04
 32 -8.84380484436847122e-03
 33 -9.31381505381347454e-04
 34 -2.32806144286407980e-03
 35 -1.57084502310885742e-02
 36  9.93279892315530356e-03
 37  1.82401899549683032e-03
 38 -9.02037792387918105e-03
 39 -3.52720502527881534e-03
 40 -8.52568374753124637e-04
 41  3.23054965478614836e-04
 42  3.81310861135410921e-03
 43  1.41998919878504959e-03
 44  6.62233310893149685e-02
 45 -5.03017433078656838e-03
 46  2.01779229823618111e-04
 47  7.49355812876038689e-03
 48  7.09088076099559784e-04
 49 -1.25197522045036522e-03
 50 -5.85968048035044164e-03
 51  6.23861852354710922e-01
 52  4.20958180148615191e-01
 53  8.28747147076399567e-06
 54  2.63523076798722754e-04
 55  2.26743180492181310e-03
 56 -5.73013241803672774e-02
 57  1.69525169129597559e-03
 58 -1.40767664185482001e-03
 59 -1.37723553502611604e-02
 60  5.20611284398891996e-02
 61  7.53318887960774050e-03
 62  2.16312824249624775e-03
 63  1.34916913152926705e-02
 64 -2.57138748359354158e-03
 65  5.98289328439876537e-03
 66 -2.55836552325412465e-04
 67 -4.03759136033508652e-03
 68 -5.04602003411263504e-04
 69 -9.27309427777076312e-02
 70 -8.35412378736943503e-03
 71 -3.16784116230337800e-03
 72 -2.01448294605647595e-02
 73 -2.81775187669069797e-04
 74  2.97482810749975833e-03
 75 -3.28469239490005414e-03
 76  3.79919981514379801e-04
 77 -1.72331586983082282e-03
 78 -1.18983107181868742e-03
 79  1.56177095677447186e-04
 80  2.53331509727369600e-03
 81  6.22078735869543206e-03
 82  8.23879334380429179e-03
 83 -8.72333604889454590e-04
 84 -1.62314001860390973e-02
 85 -7.23295836876523390e-03
 86 -9.88406634383704082e-03
 87 -2.82258912359156019e-04
 88  4.30926212950905226e-03
 89  5.27479675231366883e-03
 90 -8.06022926230602448e-03
 91  1.74749936358701191e-04
 92  1.79659498454451025e-03
 93 -5.24341909419999376e-04
 94  5.50102711817764961e-02
 95  6.55627573757801806e-03
 96 -7.80999499361279101e-04
 97 -6.31461731139935662e-03
 98  1.07965861890438808e-03
 99 -6.29707234235567866e-04
100 -6.03004676600333613e-03
101  5.28576127260691137e-05
102 -3.33369714753482772e-04
103  2.71716229410650224e-04
104  4.01175082005188535e-05
105  4.62418890188483938e-04
106  1.12598717625147994e-03
107 -1.26590678471892636e-03
108 -4.05642024138216277e-04
109 -2.68421670224500272e-03
110  6.19694579145711744e-03
111  2.38321312791057007e-03
112 -2.46005926212676529e-03
113 -4.52806869995172462e-04
114  1.00482329193751860e-03
115  1.32307752228991507e-03
116  5.71086069525133860e-04
117 -2.35986320608840976e-04
118  6.08137435622211828e-05
119 -2.91283026289754533e-02
120 -4.99382276748834130e-03
121  4.30416171188798078e-03
122  1.60141364215701559e-03
123 -1.49835900599494710e-04
124  7.23308179051625286e-04
125  1.47362446916405785e-03
126  4.30793717532568145e-04
127 -6.86940584564367106e-04
128  2.85974777847413301e-05
129  4.13866919264304649e-05
130 -2.73023824362770488e-04
131  2.45987462904137922e-05
132 -7.49578964770711330e-05
133  5.66911315612026091e-05
134  1.97603389844755884e-03
135 -3.34894125040438692e-04
136  4.12370841631996691e-04
137 -6.47125823161441810e-04
138 -1.05817206028544931e-02
139  1.74087393036911659e-03
140 -4.24261300227907743e-04
141  3.07583212632793002e-03
142 -7.09940942767907113e-05
143 -3.61260702197747127e-04
144 -5.41736107082612896e-05
145  2.90297519010376237e-05
146 -1.17408188130509636e-04
147  1.85338394189393345e-02
148 -1.01867445182489014e-02
149 -1.95488506999998438e-05
150 -5.05858988686146605e-04
151 -2.60059448500523326e-04
152  1.98203491381061239e-03
153 -1.43259141354295334e-03
154  7.20372313776869905e-05
155  6.70566807315238467e-04
156 -1.04677596772662952e-03
 Sym= A
 Ene= -1.15220698824295305e+01
 Spin= Alpha
 Occup=  1.00000000000000000e+00
  1 -2.72557226283250973e-05
  2 -2.95675395280818179e-05
  3  6.71199827150357426e-06
  4 -8.96091090294597380e-07
  5  7.18580604657634070e-06
  6  3.73797333141083526e-05
  7 -3.63184860748862401e-05
  8  3.39051923893063477e-06
  9 -6.30966798683323067e-05
 10 -9.64570645588446169e-06
 11  3.39622594393153656e-05
 12 -6.65034221761151271e-06
 13  9.76853576572634492e-05
 14  1.41051490153093350e-05
 15  2.05244772522848536e-05
 16 -3.72712166201736913e-06
 17  1.17217490475839539e-06
 18 -6.25572134420473931e-06
 19  5.74147330541803242e-04
 20 -1.03713070144679878e-05
 21  9.52507898609702064e-05
 22 -9.05678746611800634e-04
 23  6.63529780371834026e-06
 24 -6.08692469073036824e-06
 25 -1.91411066167814454e-05
 26 -4.03087919029135791e-05
 27 -4.31044392273297112e-05
 28  2.41938654602767784e-05
 29  3.41979975887675198e-06
 30 -1.84637806536478868e-06
 31  5.33975882699524892e-05
 32 -1.35899022260766805e-04
 33 -1.56395114581636499e-05
 34 -1.42504758106698247e-05
 35 -6.73581867576921031e-05
 36  1.78226997252220579e-04
 37  2.28026365916823387e-05
 38 -3.41643819545901488e-05
 39 -4.73650608368072628e-05
 40 -4.34650386508604914e-05
 41 -5.00194353165374168e-06
 42  2.31957071861698065e-05
 43  6.97169171229311924e-06
 44 -7.03148426039665173e-05
 45 -8.97500215455553541e-04
 46 -6.54536587254454181e-05
 47 -5.53767199568965126e-04
 48  7.81510906008849396e-06
 49 -1.44557444620234434e-05
 50 -5.89725197774205917e-05
 51 -3.08799415435379195e-04
 52 -3.17938957202538075e-04
 53 -1.46406742722274058e-04
 54  1.45075425049624112e-05
 55  2.67948442727964590e-04
 56  7.22146282164391360e-04
 57 -3.87217167079255571e-04
 58 -1.99576014260214901e-06
 59  4.92891270014683648e-04
 60 -5.54879794512005433e-04
 61  2.77438365526400511e-04
 62  3.68441524525545223e-05
 63 -2.11524585585924575e-04
 64  1.56917366421292656e-04
 65 -2.82667719237162133e-04
 66 -1.34153314203117600e-05
 67 -4.89044822570377551e-05
 68 -4.80979829753402682e-05
 69 -1.37347146523036229e-04
 70 -1.06342417516497117e-03
 71 -2.12572715938902655e-04
 72  4.66474227639267008e-04
 73  2.72840216099203978e-05
 74  4.70847489330509706e-05
 75 -3.25373845074186183e-05
 76  5.63661837303324198e-01
 77  4.66773985703976768e-01
 78  4.76419560233223318e-04
 79 -1.28058590687181039e-04
 80 -8.97668881447189230e-04
 81  2.59240430515409121e-03
 82 -4.38225930531391836e-04
 83  1.03078184400431358e-04
 84  7.80616111731948165e-04
 85  2.27801482087679452e-04
 86  3.86370893485150696e-04
 87 -5.62418494820652763e-05
 88 -4.92487893967023566e-04
 89  2.52377599222945162e-04
 90  1.54227206541091548e-04
 91  1.77910468948322322e-04
 92  6.58530786493346306e-04
 93  1.93100972026487544e-04
 94 -7.75661354065751299e-04
 95  3.74607472462160269e-04
 96  3.04309821044140936e-04
 97  8.34174083798114199e-04
 98  3.31745973821893068e-04
 99 -1.78622000337109354e-04
100  5.33427949982582562e-04
101  2.04271440236480049e-03
102  1.64684141105160835e-03
103 -6.78064518300813731e-05
104 -3.53673821192637978e-05
105 -1.23093955534056294e-04
106  2.81289687592269197e-04
107 -3.69327762418964153e-05
108 -1.63102705217136977e-05
109 -9.93296127013180909e-05
110 -4.52044170247363215e-04
111 -1.67116846834447703e-04
112  5.34905815189175104e-05
113  6.20456157418059785e-05
114  2.74343834500482760e-05
115  2.97333360528083137e-05
116  4.62935035924322479e-06
117 -4.83763472956333246e-05
118  6.45447594085367216e-06
119  1.51801562432917993e-04
120  3.12338595254657201e-04
121 -2.38056262367670394e-04
122  1.37096575615167174e-04
123 -1.99120240586604578e-05
124  7.20987841012270893e-05
125 -3.62355411839053619e-05
126 -5.79689659571469248e-06
127  8.39763111775456149e-05
128 -1.19779146372677182e-04
129 -1.45700721793820877e-05
130 -1.50469074987056866e-05
131  9.18066053431096551e-06
132 -5.28542616866227928e-06
133  6.62307482921155264e-06
134 -4.68575408045091584e-06
135 -2.95800171530579129e-05
136  2.06326395000039008e-05
137 -2.02604339087916139e-05
138  2.22415184135468514e-04
139 -1.17417856409558264e-04
140  1.20155438219894014e-05
141  6.24406503472267876e-05
142 -6.64546252786384852e-06
143  3.81743458161883131e-06
144 -3.55713120803105638e-06
145  4.24493472185606302e-06
146 -1.20874105833490661e-05
147  3.74739684637908342e-04
148  5.67780198385669046e-04
149  1.14023691745130323e-04
150 -2.67148848574356762e-04
151  2.49813648449543768e-06
152 -3.02687431225380048e-05
153 -2.59283602462818576e-05
154  4.81657277466068686e-06
155 -7.60144533237060263e-06
156 -7.31737135857825848e-05
 Sym= A
 Ene= -1.14542116951071424e+01
 Spin= Alpha
 Occup=  1.00000000000000000e+00
  1  2.21858942888997039e-02
  2  1.83535799711517372e-02
  3 -1.32137294295797366e-04
  4  9.71049562295571324e-06
  5 -2.24548441629449460e-04
  6  2.89371752618002552e-04
  7  1.54700162535555347e-04
  8 -2.51128176200175136e-05
  9  3.19008166640762569e-04
 10 -5.90060483356192309e-04
 11  2.69087173372534313e-04
 12  9.78906702705126220e-05
 13 -2.33599713287162866e-04
 14 -1.30761669918789324e-04
 15 -5.64356722692353473e-05
 16  3.97606137805388982e-05
 17 -1.13216094944539977e-04
 18 -2.60588492108055138e-05
 19 -1.28319669013846299e-03
 20 -1.21175475064386122e-04
 21 -2.39732199539763904e-04
 22  5.56878414926798774e-04
 23  1.63918938637108250e-05
 24 -4.37653243040642535e-05
 25  2.87807207077214775e-06
 26  5.63117553755050015e-01
 27  4.66315355363913553e-01
 28 -1.55139177035062080e-03
 29 -1.88834028282385983e-04
 30 -1.19927673612036070e-04
 31  3.25807602366680760e-03
 32  1.73768593691693519e-03
 33  1.62660603401498219e-04
 34  5.61846748343102940e-04
 35  3.17677759277766028e-05
 36 -8.31367188420290720e-04
 37 -1.46093939460591161e-04
 38  1.27778158916292664e-04
 39  8.03872322401982136e-04
 40  3.20375605681832347e-04
 41 -1.36378192000470659e-04
 42  1.53097931402011982e-04
 43 -7.70597238413761319e-07
 44  5.39489686165383502e-04
 45  9.30330638196464146e-04
 46  1.12450171415759878e-04
 47  1.32403937479009604e-03
 48  3.29815499008899156e-04
 49 -1.48838992460594705e-04
 50  6.45345753460726504e-04
 51 -1.52852132571309188e-04
 52 -2.10250300082308138e-04
 53  1.38587485518130304e-04
 54  2.19109113012297043e-05
 55  2.24779948447813143e-05
 56  5.37820134239027172e-04
 57  8.68372740478102947e-04
 58  1.16852816194268068e-04
 59 -1.42315466793830296e-04
 60 -9.86717362627060127e-05
 61 -3.53941948951339144e-04
 62 -2.29174791692706657e-05
 63  2.91288696338995803e-04
 64 -3.16147917566579541e-04
 65  7.52966530072256095e-05
 66  6.48313679729191486e-06
 67  2.82181885952902730e-04
 68  9.07392135340846605e-05
 69 -2.68725315371648194e-03
 70  1.35345748265322400e-03
 71  1.24642362891984858e-04
 72 -1.45620535197273581e-03
 73  2.68086854876512354e-05
 74  6.61874481408326383e-05
 75 -2.65348055188933076e-05
 76  5.05938998546186499e-05
 77  1.68788308946973789e-05
 78 -9.68576795255612486e-06
 79  6.83439839304896162e-06
 80  2.16096304528836676e-05
 81  1.67823232862803498e-04
 82  1.10552390261458303e-04
 83 -2.59894421128194798e-05
 84 -1.96162780787404589e-04
 85 -4.08686923364732612e-04
 86 -3.25258156902367762e-04
 87 -1.49079143999477683e-05
 88  1.73497066261681169e-04
 89  2.04406230483867249e-05
 90 -1.02912815031886253e-04
 91 -7.33630393686923479e-06
 92 -1.89143231955212322e-06
 93 -2.19404481309276501e-05
 94  3.34391683729249592e-03
 95  3.16869918738965281e-04
 96 -1.91915125971116535e-04
 97 -1.39772180202299250e-03
 98  2.04000487797454182e-05
 99 -3.21989174586437710e-05
100 -1.65257320218972141e-04
101 -8.83278028271655561e-05
102 -7.75271206389231590e-05
103  6.33949105887514809e-06
104  3.29712100465565106e-06
105  1.54649740624460953e-05
106  4.98208664195586720e-07
107 -4.47364688245392353e-05
108 -1.34443163078572212e-05
109 -6.60656784041087803e-05
110  1.75352927790912874e-04
111  9.37873678006875995e-05
112  2.59942711553335844e-05
113 -8.57229545316397921e-06
114  2.24229427817557839e-05
115  2.05047162359003571e-05
116  8.42316507661630206e-06
117 -5.04527598046733551e-06
118  2.57633142542361364e-06
119 -8.62681146483957657e-05
120 -6.57340949824711794e-04
121 -6.64487016842474202e-05
122 -1.77680205041369699e-04
123  6.46653433089831281e-06
124 -4.10633670582298156e-05
125  1.71606256954637618e-05
126  2.93411288192708394e-06
127  7.64290994377693280e-06
128 -2.43385306190088144e-05
129  5.29870191281255965e-05
130  3.97313926327040555e-05
131  7.01964279750216329e-06
132 -6.85228133394244080e-07
133  7.01484345984490048e-06
134  2.15621069566434062e-05
135 -1.38625694353153159e-05
136  7.93290048451066045e-06
137 -3.46700700889682512e-05
138  2.02131716335623095e-04
139  8.95703522398874700e-05
140 -3.55796014738808461e-05
141 -7.70889332667130874e-05
142  3.72976668809006599e-06
143  1.42674944839885431e-05
144 -3.56903949756667453e-07
145 -4.84087755975204594e-06
146 -5.13093603311541928e-06
147  2.67379663691362382e-04
148 -3.13999199430228652e-04
149  2.42900081189723261e-04
150  2.72688310391062938e-04
151 -3.68245488738559083e-06
152 -2.12575487574433691e-05
153 -2.03205473990956887e-05
154 -2.77197222365530961e-06
155  2.48621058420760671e-05
156 -9.75369641650887065e-05
 Sym= A
 Ene= -1.14334737799392929e+01
 Spin= Alpha
 Occup=  1.00000000000000000e+00
  1 -5.62637742880218727e-01
  2 -4.66062451197918837e-01
  3  1.38269868673454078e-04
  4 -3.05649133769711076e-06
  5 -5.19547673627738800e-05
  6 -5.34523513208942300e-03
  7  1.89676707343760473e-04
  8 -2.12347345845515263e-05
  9  5.50275637110835903e-04
 10  1.98505755133126767e-03
 11 -5.84235783531647773e-04
 12 -1.44695079595879065e-04
 13  2.96248235591180469e-05
 14 -1.04057810724298184e-04
 15 -3.11867239266143479e-04
 16 -3.60119615233850599e-05
 17 -5.23900258350591132e-05
 18  2.37136643481379151e-05
 19 -2.26291218747903550e-03
 20  7.17262226825757698e-04
 21  2.82919027093341208e-04
 22  2.84507508873481363e-04
 23 -4.09733400744770229e-04
 24  1.60382805136644106e-04
 25 -2.62166452873025251e-04
 26  2.24426509385370516e-02
 27  1.86335851080157502e-02
 28 -2.12896147470502894e-04
 29  5.85994912560267814e-06
 30 -2.60682065021656444e-04
 31 -1.02656459221511486e-04
 32  1.93878099908368609e-04
 33  2.05811315643806692e-06
 34  1.56645489819485823e-04
 35 -4.08378796524037793e-04
 36  8.73242284482749246e-05
 37  1.02591738652431139e-04
 38 -4.95685175384102906e-04
 39  1.15757328195756443e-04
 40  7.07821560734015181e-05
 41 -2.36248699871049730e-05
 42  8.91447420208791067e-05
 43  1.56579906184652035e-05
 44  1.36158473253976896e-03
 45  1.63454309570653723e-04
 46 -1.32463725953637274e-04
 47 -1.57007895730254430e-05
 48  2.99404401946055570e-05
 49 -5.50738192048363104e-05
 50 -2.05849366373985648e-04
 51 -1.26596767520921780e-05
 52 -1.65101778725560798e-05
 53  3.02672151656909294e-06
 54 -1.50115233878883652e-06
 55  1.43312612017486667e-05
 56  4.14466410844251929e-05
 57  1.15873659983816777e-04
 58  1.51754716064101532e-05
 59 -4.36542377418980125e-05
 60  9.57129077492369513e-05
 61  5.89667642978784491e-05
 62 -2.03394444137268031e-05
 63  5.69745854117301870e-05
 64 -5.60056518941907518e-05
 65 -4.15765461909153529e-06
 66  1.39511864393431754e-06
 67  2.88405690639532794e-05
 68  1.01400821938057822e-05
 69  2.96483340889205959e-03
 70 -5.84828079584244053e-04
 71  8.79301846170430988e-06
 72  7.14695814792840837e-04
 73  5.34031811153762164e-06
 74  1.75060851980174216e-05
 75 -7.63607226451666008e-05
 76 -2.91164806842117951e-05
 77 -2.80942080572668113e-05
 78  1.25962572934271612e-06
 79  7.85541689481916925e-07
 80  2.19494983341124400e-06
 81  1.12891352648513571e-05
 82  2.10156298513354428e-05
 83 -2.15186111413332920e-06
 84 -2.54025402086665959e-05
 85  6.06998295629278549e-05
 86  1.14131628012106642e-04
 87  5.59947661156802060e-05
 88 -4.02631774261433004e-05
 89 -2.11798671606685602e-08
 90 -2.14501376539115234e-05
 91  4.91424592300930649e-06
 92  1.84397846215173108e-07
 93  1.33814464139830924e-07
 94 -1.34626590876776365e-03
 95 -1.91935865262289645e-04
 96  1.17669408223635587e-04
 97  1.22268828101530303e-03
 98 -1.24287548725170443e-06
 99  3.17697470934155541e-05
100  2.13185313508983781e-05
101  2.67897499225666679e-04
102  2.20574281947506106e-04
103  7.96370683993587444e-06
104 -7.73158448169506226e-06
105 -2.34058339318481061e-06
106  4.65235837771898323e-05
107 -1.64061720297797732e-05
108  2.98285165930654336e-05
109 -1.02077714541134075e-05
110 -1.40958209739306084e-04
111 -1.17972750009563734e-04
112 -1.84014799816513181e-04
113  7.30993031561147941e-05
114  1.56298196220950126e-05
115  1.17474476120295927e-05
116 -2.50432696002528210e-06
117 -1.42184232012932012e-05
118  1.89839344545385328e-05
119  1.59018867383663187e-04
120  8.93816478108892722e-04
121  1.25241416038413006e-04
122  3.22414106395683259e-04
123 -1.94312804984643138e-05
124  1.29302454529655399e-04
125  3.38780697398950349e-05
126  3.52502516110641130e-06
127 -5.02251002904278190e-05
128 -3.36930300199398056e-05
129 -7.56189856305985487e-03
130 -6.18907999531299012e-03
131 -5.22487015337193050e-05
132 -3.44506089614333869e-05
133  1.17384123945100493e-04
134 -3.79750423024832002e-04
135 -1.94942416061687549e-04
136 -6.75575527173292252e-05
137  3.28827646766590223e-04
138 -4.37237138764573008e-04
139 -3.34816081123009054e-05
140  1.05065956484384247e-04
141  2.26506182574432260e-04
142 -1.05246457364468714e-04
143  1.02826337475739649e-04
144  4.77503199740357133e-05
145  2.91738833736371247e-05
146 -2.66551082533298450e-05
147 -1.11391921325488001e-03
148  3.33691497466879594e-04
149 -4.09505146377927740e-04
150 -2.50138455724702559e-04
151  6.60368562373566085e-06
152  5.12846726505553107e-05
153  1.11471938582453841e-04
154 -1.95826044484374438e-06
155 -5.33376091483407788e-05
156  1.67973098170965957e-04
 Sym= A
 Ene= -1.14309465288666612e+01
 Spin= Alpha
 Occup=  1.00000000000000000e+00
  1  1.70949898584631013e-04
  2  1.43314169642915130e-04
  3  5.89095140930603177e-07
  4  1.79687195813763251e-06
  5 -2.56455459686407527e-06
  6 -3.24062928977527447e-05
  7  2.05410206994732281e-05
  8 -1.32804032871978835e-05
  9  3.12385148338897462e-06
 10 -9.99819081229676973e-05
 11 -4.03504061818517757e-05
 12 -1.46174466142805694e-05
 13  7.00284752714412087e-05
 14  9.03128161838991580e-06
 15 -1.10171738116754894e-05
 16 -1.09028590412614937e-05
 17  1.22161900525742180e-05
 18 -7.93711933243795079e-06
 19 -2.34393413250543001e-03
 20  3.83152544312078910e-04
 21  2.26162432745899920e-05
 22 -5.57449147611603722e-04
 23 -7.56135079460768489e-07
 24  1.72279905983314305e-05
 25  9.28583141780967171e-05
 26  8.36727796614276985e-05
 27  7.20008202646656815e-05
 28  4.50075886138817140e-06
 29  2.78118849463707098e-06
 30  3.39749904716571026e-06
 31 -3.26115682746090814e-05
 32 -1.84900279615694654e-05
 33 -1.69962604351170633e-05
 34 -2.66669194206531185e-05
 35  3.65379789158918917e-04
 36 -1.26699356453730222e-04
 37 -9.18703641735989133e-06
 38  1.69374120306448826e-04
 39 -5.85817636643528696e-06
 40  2.10534419812995816e-06
 41  1.09856424152394657e-06
 42  1.63083673918823758e-05
 43  2.46236433584641825e-07
 44  1.85952627683438811e-03
 45 -5.01759934983334629e-04
 46  6.38157691564133209e-06
 47  2.57199911187653218e-04
 48 -4.33295515157876777e-06
 49  2.87342564885891699e-05
 50  3.32203239554986474e-05
 51  7.89229437098633379e-06
 52  3.09699606692445438e-06
 53  2.80096143121161838e-06
 54  2.42181971868534325e-06
 55 -8.01924537110793038e-06
 56  2.25588156082889888e-05
 57 -2.27900433649408906e-05
 58 -1.38663474885052797e-05
 59  6.76084521376160134e-06
 60 -4.58211953394400734e-04
 61 -2.67915042597335678e-04
 62 -3.88021760125191405e-05
 63 -3.02887529261239871e-04
 64  2.08946001164822207e-05
 65 -1.55699376732449471e-05
 66  6.37598297914050901e-06
 67 -8.09771783399749161e-06
 68 -1.80287244100986201e-06
 69 -3.01464996476868974e-03
 70 -2.56729844128888562e-04
 71 -1.52562688717496357e-04
 72 -4.34392411497255186e-04
 73  9.87970033750287784e-06
 74 -7.00004539447820671e-05
 75 -2.72148740695782863e-05
 76 -2.14727208429470358e-03
 77 -1.85735433291040202e-03
 78  5.70504377160143311e-05
 79  2.37310603620066565e-05
 80  1.03441434603532335e-04
 81  2.67021396830875604e-04
 82  2.03081014322015066e-04
 83  8.23163906701907260e-05
 84  4.03692268334255460e-04
 85  1.16976163750296151e-03
 86  5.64338876509904320e-04
 87  1.11658372988023192e-04
 88  3.65516872757210443e-04
 89  1.09006046985015128e-04