[Molden Format]
[Atoms] (AU)
C    1    6         2.629487081914       0.093476835175      -0.212912561290
H    2    1         4.611654542927       0.302615517583      -0.233944234755
C    3    6         1.374259263318       0.191322606791      -2.346684474049
H    4    1         2.346381966313       0.518776997128      -4.119567358050
C    5    6        -1.374258746478      -0.191322258704      -2.346683658821
H    6    1        -2.346380663536      -0.518778527239      -4.119566463454
C    7    6        -2.629487000845      -0.093475165602      -0.212912062969
H    8    1        -4.611654185013      -0.302615163448      -0.233943342048
C    9    6        -1.373192188454       0.455443034848       2.246402049504
H   10    1        -1.488313025050       2.498821411122       2.579052207052
H   11    1        -2.419542110438      -0.446949438545       3.775431299036
C   12    6         1.373191124160      -0.455443107792       2.246401431375
H   13    1         1.488312603264      -2.498821715368       2.579050874984
H   14    1         2.419541338107       0.446948974051       3.775430768968
[GTO]
  1 0
 s    6  1.00
     4563.2400000000         0.0019666500
      682.0240000000         0.0152306000
      154.9730000000         0.0761269000
       44.4553000000         0.2608010000
       13.0290000000         0.6164620000
        1.8277300000         0.2210060000
 s    3  1.00
       20.9642000000         0.1146600000
        4.8033100000         0.9199990000
        1.4593300000        -0.0030306800
 p    3  1.00
       20.9642000000         0.0402487000
        4.8033100000         0.2375940000
        1.4593300000         0.8158540000
 s    1  1.00
        0.4834560000         1.0000000000
 p    1  1.00
        0.4834560000         1.0000000000
 s    1  1.00
        0.1455850000         1.0000000000
 p    1  1.00
        0.1455850000         1.0000000000
 d    1  1.00
        0.6260000000         1.0000000000
 s    1  1.00
        0.0438000000         1.0000000000
 p    1  1.00
        0.0438000000         1.0000000000

  2 0
 s    3  1.00
       33.8650000000         0.0254938000
        5.0947900000         0.1903730000
        1.1587900000         0.8521610000
 s    1  1.00
        0.3258400000         1.0000000000
 s    1  1.00
        0.1027410000         1.0000000000

  3 0
 s    6  1.00
     4563.2400000000         0.0019666500
      682.0240000000         0.0152306000
      154.9730000000         0.0761269000
       44.4553000000         0.2608010000
       13.0290000000         0.6164620000
        1.8277300000         0.2210060000
 s    3  1.00
       20.9642000000         0.1146600000
        4.8033100000         0.9199990000
        1.4593300000        -0.0030306800
 p    3  1.00
       20.9642000000         0.0402487000
        4.8033100000         0.2375940000
        1.4593300000         0.8158540000
 s    1  1.00
        0.4834560000         1.0000000000
 p    1  1.00
        0.4834560000         1.0000000000
 s    1  1.00
        0.1455850000         1.0000000000
 p    1  1.00
        0.1455850000         1.0000000000
 d    1  1.00
        0.6260000000         1.0000000000
 s    1  1.00
        0.0438000000         1.0000000000
 p    1  1.00
        0.0438000000         1.0000000000

  4 0
 s    3  1.00
       33.8650000000         0.0254938000
        5.0947900000         0.1903730000
        1.1587900000         0.8521610000
 s    1  1.00
        0.3258400000         1.0000000000
 s    1  1.00
        0.1027410000         1.0000000000

  5 0
 s    6  1.00
     4563.2400000000         0.0019666500
      682.0240000000         0.0152306000
      154.9730000000         0.0761269000
       44.4553000000         0.2608010000
       13.0290000000         0.6164620000
        1.8277300000         0.2210060000
 s    3  1.00
       20.9642000000         0.1146600000
        4.8033100000         0.9199990000
        1.4593300000        -0.0030306800
 p    3  1.00
       20.9642000000         0.0402487000
        4.8033100000         0.2375940000
        1.4593300000         0.8158540000
 s    1  1.00
        0.4834560000         1.0000000000
 p    1  1.00
        0.4834560000         1.0000000000
 s    1  1.00
        0.1455850000         1.0000000000
 p    1  1.00
        0.1455850000         1.0000000000
 d    1  1.00
        0.6260000000         1.0000000000
 s    1  1.00
        0.0438000000         1.0000000000
 p    1  1.00
        0.0438000000         1.0000000000

  6 0
 s    3  1.00
       33.8650000000         0.0254938000
        5.0947900000         0.1903730000
        1.1587900000         0.8521610000
 s    1  1.00
        0.3258400000         1.0000000000
 s    1  1.00
        0.1027410000         1.0000000000

  7 0
 s    6  1.00
     4563.2400000000         0.0019666500
      682.0240000000         0.0152306000
      154.9730000000         0.0761269000
       44.4553000000         0.2608010000
       13.0290000000         0.6164620000
        1.8277300000         0.2210060000
 s    3  1.00
       20.9642000000         0.1146600000
        4.8033100000         0.9199990000
        1.4593300000        -0.0030306800
 p    3  1.00
       20.9642000000         0.0402487000
        4.8033100000         0.2375940000
        1.4593300000         0.8158540000
 s    1  1.00
        0.4834560000         1.0000000000
 p    1  1.00
        0.4834560000         1.0000000000
 s    1  1.00
        0.1455850000         1.0000000000
 p    1  1.00
        0.1455850000         1.0000000000
 d    1  1.00
        0.6260000000         1.0000000000
 s    1  1.00
        0.0438000000         1.0000000000
 p    1  1.00
        0.0438000000         1.0000000000

  8 0
 s    3  1.00
       33.8650000000         0.0254938000
        5.0947900000         0.1903730000
        1.1587900000         0.8521610000
 s    1  1.00
        0.3258400000         1.0000000000
 s    1  1.00
        0.1027410000         1.0000000000

  9 0
 s    6  1.00
     4563.2400000000         0.0019666500
      682.0240000000         0.0152306000
      154.9730000000         0.0761269000
       44.4553000000         0.2608010000
       13.0290000000         0.6164620000
        1.8277300000         0.2210060000
 s    3  1.00
       20.9642000000         0.1146600000
        4.8033100000         0.9199990000
        1.4593300000        -0.0030306800
 p    3  1.00
       20.9642000000         0.0402487000
        4.8033100000         0.2375940000
        1.4593300000         0.8158540000
 s    1  1.00
        0.4834560000         1.0000000000
 p    1  1.00
        0.4834560000         1.0000000000
 s    1  1.00
        0.1455850000         1.0000000000
 p    1  1.00
        0.1455850000         1.0000000000
 d    1  1.00
        0.6260000000         1.0000000000
 s    1  1.00
        0.0438000000         1.0000000000
 p    1  1.00
        0.0438000000         1.0000000000

  10 0
 s    3  1.00
       33.8650000000         0.0254938000
        5.0947900000         0.1903730000
        1.1587900000         0.8521610000
 s    1  1.00
        0.3258400000         1.0000000000
 s    1  1.00
        0.1027410000         1.0000000000

  11 0
 s    3  1.00
       33.8650000000         0.0254938000
        5.0947900000         0.1903730000
        1.1587900000         0.8521610000
 s    1  1.00
        0.3258400000         1.0000000000
 s    1  1.00
        0.1027410000         1.0000000000

  12 0
 s    6  1.00
     4563.2400000000         0.0019666500
      682.0240000000         0.0152306000
      154.9730000000         0.0761269000
       44.4553000000         0.2608010000
       13.0290000000         0.6164620000
        1.8277300000         0.2210060000
 s    3  1.00
       20.9642000000         0.1146600000
        4.8033100000         0.9199990000
        1.4593300000        -0.0030306800
 p    3  1.00
       20.9642000000         0.0402487000
        4.8033100000         0.2375940000
        1.4593300000         0.8158540000
 s    1  1.00
        0.4834560000         1.0000000000
 p    1  1.00
        0.4834560000         1.0000000000
 s    1  1.00
        0.1455850000         1.0000000000
 p    1  1.00
        0.1455850000         1.0000000000
 d    1  1.00
        0.6260000000         1.0000000000
 s    1  1.00
        0.0438000000         1.0000000000
 p    1  1.00
        0.0438000000         1.0000000000

  13 0
 s    3  1.00
       33.8650000000         0.0254938000
        5.0947900000         0.1903730000
        1.1587900000         0.8521610000
 s    1  1.00
        0.3258400000         1.0000000000
 s    1  1.00
        0.1027410000         1.0000000000

  14 0
 s    3  1.00
       33.8650000000         0.0254938000
        5.0947900000         0.1903730000
        1.1587900000         0.8521610000
 s    1  1.00
        0.3258400000         1.0000000000
 s    1  1.00
        0.1027410000         1.0000000000

[5D]
[9G]

[MO]
 Sym= A
 Ene= -1.25305625696760181e+01
 Spin= Alpha
 Occup=  1.00000000000000000e+00
  1 -4.35891228925987519e-05
  2  2.26484971309930946e-04
  3 -4.14730169397853094e-05
  4 -2.31245081729402005e-06
  5 -1.08270568717490045e-04
  6 -1.43392528094745710e-03
  7  1.17251935586513609e-03
  8 -3.93808821143896295e-05
  9  1.49776079200617104e-03
 10 -7.91649535526872151e-04
 11  7.26457636701384230e-04
 12  7.50523259360887920e-04
 13 -2.01835956535487571e-04
 14 -3.64566596006072545e-04
 15 -7.48070460659901052e-04
 16  1.70341151612538321e-04
 17  1.44569040734713770e-04
 18  3.94001094211482919e-05
 19  1.93094278225681981e-02
 20 -3.18653495193999903e-03
 21  1.91835693025086958e-03
 22 -1.80380303364691408e-02
 23 -1.75994485123545104e-04
 24 -3.18443437951254919e-04
 25  7.20203636997258207e-04
 26 -4.09381553387186406e-05
 27  2.29908622244741161e-04
 28 -6.58484255349237719e-04
 29 -8.35914136207026499e-05
 30 -2.75698095149429570e-04
 31 -1.07050552514188746e-03
 32  4.27331524944962824e-03
 33  4.59221216274074929e-04
 34  1.41215578684315878e-03
 35  1.04959374570165877e-03
 36 -2.06176511958827040e-03
 37 -6.25145273394558314e-04
 38  1.36078790608107906e-04
 39  2.00197651215078655e-03
 40  5.36298655248694327e-04
 41  7.37917880567221180e-05
 42 -1.08047619865559992e-03
 43 -3.73376966526414104e-04
 44 -5.06865692705722945e-02
 45 -6.20421191488908664e-03
 46  3.08356058299896893e-04
 47 -9.60056226778940522e-03
 48 -2.73748601974222621e-04
 49 -1.56467399006313481e-04
 50  2.40242059107359518e-03
 51 -3.49012760711516889e-04
 52  1.56030512669922392e-03
 53 -1.61568433988980233e-03
 54  4.59769951242411021e-05
 55  1.97182400413684414e-03
 56 -6.67194395955474518e-03
 57  1.09777132192918053e-02
 58 -4.43824035839806706e-04
 59 -1.47856101626896511e-02
 60  1.53337402745253319e-03
 61 -1.17766349151447215e-03
 62  1.20601321308348264e-03
 63  7.92297760664425338e-03
 64 -6.05001598617854915e-03
 65  7.05442279454467341e-03
 66 -4.21477986102086885e-04
 67 -8.51068250724502321e-04
 68  6.84704040179864490e-04
 69 -2.17953025391729033e-02
 70  6.16640139162336325e-03
 71 -1.38105129992479648e-03
 72 -1.28481292754040557e-03
 73 -9.38674851091068733e-04
 74  5.17977338183945126e-04
 75  4.65788655432968195e-03
 76 -6.22334228988180138e-01
 77 -4.20878796002953581e-01
 78 -1.61724329699250392e-03
 79 -5.80124956108702007e-05
 80  1.33807099694904178e-03
 81  5.04978713982848215e-02
 82  1.00744838563388926e-02
 83  1.28531622737562776e-04
 84 -1.02024404849113178e-02
 85 -3.75321252283995627e-02
 86 -9.26783053422106616e-03
 87 -1.58748451282292075e-03
 88  1.17220458463468489e-03
 89  5.58429856423194124e-03
 90 -4.40090224189013200e-03
 91  7.99447513161189545e-04
 92  1.37146766023581103e-03
 93 -1.39722037563347643e-04
 94  4.65419398036427331e-02
 95  1.18189650214173859e-02
 96  3.79274969009820015e-03
 97 -5.78122567611689259e-03
 98  2.12611173447197442e-04
 99 -1.94500929188546386e-03
100  3.82893280569006388e-03
101 -5.49415372470001508e-05
102  3.60087708409291497e-04
103 -7.36961613515749550e-04
104 -2.75973688084664925e-04
105 -1.21051978537456330e-03
106 -2.81095181881321722e-04
107  2.30087471236192602e-03
108  7.73671738922093949e-04
109  3.57647898847340221e-03
110  5.32987801450284827e-03
111 -5.67938368912192064e-04
112  9.92929179618508686e-04
113 -4.22845657020742578e-03
114 -2.13691673547852573e-03
115 -2.26473526723346922e-03
116 -1.00418286992863624e-03
117 -7.40605944188019085e-04
118 -7.47575798385148246e-04
119  9.24020666744925293e-03
120  4.92857173807730985e-03
121 -5.42510199472468445e-03
122  5.35093246102043025e-03
123 -5.69747048541872025e-04
124 -8.07129173382105511e-04
125 -5.94108938695137690e-05
126 -5.06718351873297612e-04
127  4.59416319988544756e-04
128 -8.10401220054749361e-04
129 -3.01300346721823593e-05
130  1.82160436052423096e-04
131 -1.77572676351224240e-04
132 -1.15931746075255485e-05
133  5.59242052779420262e-05
134 -1.17986648936488272e-03
135  1.02151839901777706e-03
136 -1.07427222564682206e-04
137  1.11118117073338886e-04
138  1.71389738343168899e-03
139 -1.64885910736650666e-03
140 -2.49927434000299376e-03
141 -1.02229853421537359e-03
142  3.40548785900384897e-04
143  3.36449127056869695e-04
144  1.29370306026974638e-04
145 -2.48556116185177673e-04
146  1.89476780250506782e-04
147 -1.48481214738279809e-03
148  1.29004893107052265e-02
149  1.50908546640830441e-03
150 -4.88103855161617969e-03
151  2.87820967083179859e-04
152 -1.85947042283479691e-03
153 -1.81122484994281584e-04
154 -2.60566674811290504e-04
155  5.56627615788499912e-04
156  1.19454638724873167e-03
 Sym= A
 Ene= -1.04665850626873684e+01
 Spin= Alpha
 Occup=  1.00000000000000000e+00
  1 -4.03134795208496483e-05
  2  5.89520495535454582e-05
  3 -3.71180899416960513e-05
  4 -1.15406424620848593e-05
  5 -9.20234496408618393e-05
  6 -4.73867334665554162e-04
  7  5.54294002790410578e-04
  8  3.36596532651890518e-05
  9  8.51462531634064991e-04
 10 -3.14064520856320237e-03
 11  1.28113619923272428e-03
 12  1.23362455139777201e-04
 13 -4.64553987088278826e-04
 14 -1.82617279665402317e-04
 15 -4.26800757693910075e-04
 16 -3.82177940546734921e-05
 17  4.69548049671340579e-05
 18  4.51422653291672158e-05
 19  5.12902918854008655e-03
 20 -1.12910626307751783e-03
 21  4.59906054802804761e-04
 22 -3.03697137240012361e-03
 23 -8.06475872880845125e-05
 24 -1.38825249481105235e-04
 25  3.51122039216797443e-04
 26  9.47330111329222450e-04
 27  8.52973877016478571e-04
 28 -6.23084249833624477e-04
 29 -6.77681017479970371e-05
 30 -8.58201833484966786e-05
 31  1.37938724249298168e-04
 32  2.04018343241958505e-03
 33  1.73294211288516710e-04
 34  6.40226797430125004e-04
 35  4.40634522304225729e-03
 36 -2.71829281785744082e-03
 37 -4.63932687294285086e-04
 38  2.38629888435447661e-03
 39  8.10364556214991432e-04
 40  2.08275516684230781e-04
 41 -9.77932257215339022e-05
 42 -9.08050882746937378e-04
 43 -3.29648291718964833e-04
 44 -1.87318402892035531e-02
 45  1.14690832566840054e-03
 46 -9.24221466623818957e-05
 47 -2.09838306336538943e-03
 48 -1.63337728506343194e-04
 49  3.32902145314554543e-04
 50  1.54374718671106159e-03
 51  5.62970885829445433e-01
 52  4.63346093161838501e-01
 53 -3.59759881555614717e-04
 54 -7.41290071893968723e-05
 55  8.99171470273262674e-05
 56  1.87560724138745236e-02
 57 -7.39717343707195604e-04
 58  3.99572592158546809e-04
 59  3.92753665741747346e-03
 60 -1.42376906805900157e-02
 61 -2.38730678475052027e-03
 62 -6.19393941919174260e-04
 63 -3.56110648646994991e-03
 64  1.10325176245183536e-03
 65 -1.80274538079300078e-03
 66  1.60442622041063576e-04
 67  1.19777983838957147e-03
 68  1.13832725749468853e-04
 69  2.41351176917111755e-02
 70  2.60087026509886118e-03
 71  8.63613820498785071e-04
 72  5.28655110465974225e-03
 73  3.33893915009417176e-04
 74 -1.02661521351029303e-03
 75  1.09434745935298172e-03
 76 -2.90564219520911260e-04
 77  2.81287888388839563e-04
 78  4.29193444004524413e-04
 79 -5.62951904248818792e-05
 80 -8.83945658849269000e-04
 81 -1.79017553947673062e-03
 82 -2.40339860537215882e-03
 83  2.95557390248210648e-04
 84  4.86519629730744214e-03
 85  1.66675662698060408e-03
 86  2.97282046652744096e-03
 87  1.02072440596885468e-04
 88 -1.03229851549750608e-03
 89 -1.51558820147719127e-03
 90  2.23499012803533457e-03
 91 -8.59509026078388824e-05
 92 -5.11433547608062568e-04
 93  1.51335505784599506e-04
 94 -1.36093714138339917e-02
 95 -1.42674424055455888e-03
 96  2.82627291474794092e-04
 97  1.48007038896303127e-03
 98 -3.27164330325808875e-04
 99  2.48469413452457840e-04
100  1.84264105595460391e-03
101 -8.60616988878486368e-05
102  2.45294857459823996e-05
103 -7.60982901706669157e-05
104 -1.11751101690411792e-05
105 -1.26155745620582394e-04
106 -2.85365933852508983e-04
107  3.76058769453677935e-04
108  1.18020220301591285e-04
109  7.86918626312901447e-04
110 -2.02960291706528063e-03
111 -7.07838626063397652e-04
112  6.54091720468698355e-04
113  2.65689873681325254e-04
114 -3.24473460621174756e-04
115 -3.69880163763355255e-04
116 -1.59404848168286697e-04
117  7.03706334388080445e-05
118 -2.00843864962874208e-05
119  7.61072801546791577e-03
120  1.29390748613372178e-03
121 -1.25091744747901938e-03
122 -2.64041283733701317e-04
123  3.30690968419891377e-05
124 -1.58623979736239473e-04
125 -3.46788532342135001e-04
126 -1.17443948189962860e-04
127  2.23247101818115421e-04
128 -9.27986224227933071e-05
129 -4.49511556452656684e-05
130  3.71101199442182899e-05
131 -8.75242272733912426e-06
132  1.87968437975506787e-05
133 -6.32289196918695716e-06
134 -5.27888454266712149e-04
135  1.00362045558325666e-04
136 -1.09600102524357203e-04
137  1.51105693957721241e-04
138  2.93399378975459221e-03
139 -4.82697241922332566e-04
140  1.73449257728587982e-04
141 -7.67828415405790734e-04
142  1.76501105987671936e-05
143  9.33714529393523090e-05
144  1.16162491892841079e-05
145 -4.14843428071836081e-06
146  4.02457114315924144e-05
147 -4.46658934175418569e-03
148  2.98273062684113049e-03
149  9.79207655883296952e-05
150  1.06013278493114914e-05
151  6.82919694213679962e-05
152 -5.14780674984383437e-04
153  4.32230442609978969e-04
154 -1.53033122749499872e-05
155 -2.01939550775810423e-04
156  2.30178257730412306e-04
 Sym= A
 Ene= -1.04047332801855266e+01
 Spin= Alpha
 Occup=  1.00000000000000000e+00
  1  1.56586811871541168e-04
  2  6.16080489528023258e-05
  3  2.44188387010763511e-05
  4  1.01133725918403420e-05
  5 -8.91246455818087916e-05
  6  3.54053857605903400e-04
  7 -3.15673759748923101e-04
  8 -3.73899919719401135e-05
  9  4.38577861096973456e-04
 10  2.51095542803468240e-03
 11 -6.17311420744441836e-04
 12 -1.73984485563102550e-04
 13 -4.08285831705318858e-04
 14  2.03104754070011849e-04
 15 -1.27468125961477868e-04
 16 -5.92686427157247023e-06
 17 -1.46516027223261397e-04
 18  1.69433055588165150e-04
 19  1.26336490216222824e-02
 20 -1.99270402106873929e-03
 21  6.16176526864214329e-05
 22  4.31032203793865580e-03
 23  8.19490643951837223e-05
 24 -3.38624548190420873e-07
 25 -4.88794977939883122e-04
 26  1.21536339689914946e-04
 27  2.13647544474423829e-05
 28  4.89927445888046768e-05
 29 -2.40444365154948444e-05
 30 -2.42281392528209772e-05
 31  5.92707120532733143e-04
 32 -2.90485578630222832e-04
 33  7.90779108143670179e-05
 34  2.29975013289307039e-04
 35 -4.30861293173413068e-03
 36  1.83325618940677337e-03
 37  3.12675978207376155e-04
 38 -2.16849873177656300e-03
 39 -7.13213991800239189e-05
 40 -6.96499337746721684e-06
 41  1.35303671457774668e-05
 42 -3.01822225793236584e-05
 43  3.93038452318249601e-05
 44 -9.55745986278589213e-03
 45  3.57005444845899132e-03
 46 -1.35834000902229586e-04
 47 -1.49592939034594329e-03
 48  9.02196098079079167e-05
 49 -3.53970529144064232e-04
 50 -8.29372461178242825e-04
 51 -6.20246084670125211e-05
 52 -1.66910202861367989e-04
 53  9.30372413329014545e-05
 54 -2.26008403105408030e-05
 55 -1.05772453070713545e-04
 56  5.40721027080912900e-04
 57 -6.88998027052132363e-04
 58  1.46983120839232364e-04
 59  1.16204688530218694e-03
 60  3.83941259955258418e-03
 61  2.93588305374219540e-03
 62  3.20753683782303088e-04
 63  2.12215578921854525e-03
 64  3.84790900537029150e-04
 65 -4.30647392457549625e-04
 66 -2.08097848502729751e-05
 67 -9.81614803191111017e-05
 68 -1.16263877674514169e-04
 69  2.51098816527566375e-02
 70  9.13062052771155576e-04
 71  1.08940144895940398e-03
 72  3.90596643071581835e-03
 73  1.88341901939564666e-05
 74  6.98816963905043022e-04
 75  5.30113093449094679e-05
 76  6.23808746623090340e-05
 77 -3.82309108444629333e-06
 78 -2.05870102543776482e-04
 79 -1.12223165449849553e-04
 80 -6.58901958168015022e-04
 81 -9.12118604911214263e-06
 82  1.97771229920315548e-04
 83  3.14438960168314215e-04
 84  2.30827316501683918e-03
 85 -7.94077788273824837e-03
 86 -4.49744172872335729e-03
 87 -9.32889154212145121e-04
 88 -3.98522718516606048e-03
 89  4.06397950087907401e-04
 90  1.19242938997219153e-03
 91  3.05048033739036613e-04
 92 -6.42161616265977627e-05
 93  1.25019925666856836e-04
 94 -2.00178067289230530e-02
 95 -3.80950549593621216e-03
 96 -7.79991472314310120e-04
 97  2.69248903560652744e-03
 98  2.05669362839188069e-04
 99 -3.15054509519872253e-04
100 -1.37905099393556183e-03
101 -5.62982446979065743e-01
102 -4.63535802039782174e-01
103  3.96006817907995255e-04
104  1.07706451518471309e-04
105  6.15447638905175379e-04
106 -1.80335791263805112e-02
107 -5.52173198331612838e-04
108  4.73059127467517619e-04
109  7.81720717391982804e-04
110  2.46883157218923885e-02
111  1.08304807417083275e-03
112 -1.07269401558046868e-03
113 -2.86003710869043486e-03
114 -9.29660827672458063e-05
115 -3.76118241496878911e-04
116 -1.00466175841237198e-04
117 -3.28088585374886022e-04
118  8.17727748804434771e-05
119  1.25657349472417107e-02
120  1.56791707293041133e-03
121  6.64430055576986948e-04
122 -1.04509267625105717e-03
123  1.32563464728418492e-04
124 -1.14549630750530223e-03
125 -3.90395086342970208e-03
126  1.16532251936061018e-04
127 -9.85239171812698133e-04
128 -3.63264711438521151e-03
129 -1.42831160979268209e-03
130 -1.26968644849638685e-03
131  4.89398316440574094e-04
132 -1.64916997119863814e-04
133 -6.30052168487351327e-05
134  2.96276845201689934e-04
135 -1.16741714948909799e-03
136  3.90684465263284092e-04
137  2.98785816402307662e-04
138 -6.54765163773885547e-03
139  2.77966523618250212e-03
140 -1.37195217511080136e-03
141 -3.79606906038323561e-05
142 -4.94929233002175135e-04
143  1.21943099768108117e-04
144  6.67418330088010743e-05
145  6.69916798995106189e-04
146 -5.27438081987816033e-04
147 -1.83506859959167157e-02
148 -7.50395044342510404e-04
149 -2.44173397962219865e-03
150  2.93911282904430436e-03
151  1.73224165197781595e-04
152  3.61273619175702635e-04
153 -3.87267520718497188e-04
154  8.67064882938274568e-05
155  5.76443593215763346e-04
156  6.44299531950771496e-04
 Sym= A
 Ene= -1.03850534124715672e+01
 Spin= Alpha
 Occup=  1.00000000000000000e+00
  1 -5.62442174168058862e-01
  2 -4.63036268136143514e-01
  3 -3.23716500435286189e-04
  4  2.31305462561412190e-05
  5 -3.77455563476365404e-04
  6 -1.92968522087922298e-02
  7  3.21448494057382291e-03
  8  4.36341254165037432e-07
  9  3.56755917522060765e-03
 10  1.22343797482320719e-02
 11 -2.84963281583690926e-03
 12 -5.42024089796561245e-04
 13 -2.43874516852259576e-04
 14 -1.97675761556477146e-03
 15 -1.63570643868806960e-03
 16  3.06938826370127473e-04
 17 -7.29931286189095278e-04
 18  9.07461705471704360e-06
 19 -1.38122171190081765e-02
 20  3.98158674954173387e-03
 21  1.37553707967979209e-03
 22  1.73395715437187482e-03
 23 -3.05217136411186697e-04
 24  9.09504543322671032e-04
 25 -1.68832247921948432e-03
 26 -1.99058556383573011e-02
 27 -1.69294137055472083e-02
 28 -6.00547404958666313e-04
 29  2.25682352152269258e-05
 30 -7.79497646905846905e-04
 31  1.39133845157014412e-03
 32  3.64535999081939390e-03
 33 -1.40687117653900636e-04
 34  4.84654752048708972e-03
 35  6.65632915742695309e-04
 36 -4.22661913688795966e-04
 37  3.83177994957080762e-04
 38 -2.31459006285355011e-03
 39  1.98582317627650756e-03
 40  2.25582222985984968e-03
 41 -1.43878246965545379e-04
 42  2.87473765781085086e-04
 43 -2.16366042383558368e-04
 44  5.41416152675296310e-03
 45  1.94301070779342479e-03
 46 -4.66956161461486575e-04
 47 -1.60097744070296691e-04
 48  2.89772984242384741e-04
 49 -1.38889398416063925e-04
 50 -1.59377782227247992e-03
 51  1.61842720965836131e-05
 52 -6.97790512480733278e-05
 53 -2.37137468850939087e-04
 54 -2.93032533163523140e-05
 55  9.65409030012714481e-05
 56  3.47580445143130042e-04
 57  1.47727180048205049e-03
 58  1.57289762345345587e-04
 59 -5.05796663524542690e-04
 60 -7.65497333370995597e-04
 61 -8.14151324830916442e-04
 62 -2.49023546067731578e-04
 63 -3.04707642736433502e-04
 64 -6.96017829829011334e-04
 65  1.72161543824384254e-04
 66  1.69640633386574616e-05
 67  3.94262361672004940e-04
 68  1.39346665883793868e-04
 69  1.89933206754934400e-02
 70 -2.33687446712506700e-03
 71  9.28606189911118413e-05
 72  3.67133440823847780e-03
 73  9.78091670917615000e-05
 74  1.99758956609783412e-05
 75 -9.24012345242967124e-04
 76  1.39676151812951671e-05
 77 -7.10051691845454578e-05
 78 -1.37184414714662408e-05
 79 -9.06366580889788964e-07
 80  4.06343965454218018e-05
 81  4.75242891729495164e-04
 82  4.06907652789866947e-04
 83 -1.19357848978175798e-05
 84 -5.31231376297591784e-04
 85  6.39135744855608492e-04
 86  4.50948530198530377e-04
 87  2.79142996473192662e-04
 88  3.55789678375945429e-05
 89  1.26330662152425520e-04
 90 -2.70129564214674522e-04
 91  5.42403280240236769e-05
 92 -4.84020741600189004e-05
 93 -1.42778682357887937e-05
 94 -7.32351668473329217e-03
 95 -1.16780547927267369e-03
 96  7.10402624026959290e-04
 97  6.72749489760854791e-03
 98  5.69510846179935515e-05
 99  1.34069224235987234e-04
100 -2.15013890401529047e-04
101 -1.37646596669362169e-04
102 -1.77895682451761894e-04
103 -5.47586576151753000e-05
104 -7.78970302509981987e-06
105 -1.61705585220774670e-05
106  4.10102920526731472e-04
107  3.15248524126367864e-04
108 -1.74816294502187415e-05
109 -4.61794947044321901e-05
110 -8.80693139546696348e-04
111 -6.34860112605867017e-04
112 -8.66546378399948468e-04
113  4.14768901339734116e-04
114 -9.83210313766341156e-05
115  1.10052632927991643e-04
116  3.76704794206218373e-05
117  7.89681844335796487e-05
118 -4.82805627753589328e-05
119  4.16993220325875488e-04
120  4.73700964111534607e-03
121  5.92843630898488090e-04
122  1.74951735193129348e-03
123 -1.01022680483021558e-04
124  6.81344263052056334e-04
125  6.35893373585658507e-05
126  8.21155107132051204e-05
127 -1.83259794168663166e-04
128 -3.86188622124579537e-04
129 -3.79482647848038406e-03
130 -3.20511697516250070e-03
131 -2.59107626363128639e-04
132 -1.02998828706905268e-04
133  4.32698624904245181e-04
134 -1.91660182077421816e-04
135  6.66579967046666421e-04
136  2.26209044449643566e-04
137 -1.00016328603021892e-03
138 -1.41552456094939721e-03
139 -2.23781357731435909e-04
140  4.31363317947319226e-04
141  1.34379929638921538e-03
142  6.22217174191635829e-04
143 -6.80141934270902279e-04
144 -3.00847487375145045e-04
145  2.67624579004870197e-04
146  2.31925741232247035e-04
147 -4.12439272930263320e-03
148  1.71848174754716740e-03
149 -2.03825276931040569e-03
150 -1.70987772614089530e-03
151  1.88297672225356275e-04
152  2.64327643203070089e-04
153  6.52891802998395974e-05
154  1.62958246239081040e-04
155 -2.20999815638021142e-04
156  3.49828418788512006e-04
 Sym= A
 Ene= -1.03711152102505952e+01
 Spin= Alpha
 Occup=  1.00000000000000000e+00
  1  2.01863879142980991e-02
  2  1.60663938311385972e-02
  3  4.29468126639406063e-04
  4 -6.10008229676638634e-05
  5  8.99983239262197652e-04
  6  2.79998918874371696e-03
  7 -2.75835111472335975e-03
  8  3.32315748981796633e-04
  9 -5.51612855934497347e-03
 10 -2.25484546886454583e-03
 11  3.10881524747903945e-03
 12  6.03379795475139926e-05
 13  1.31503455979702435e-03
 14  1.74196299221177444e-03
 15  2.50162767663743985e-03
 16 -1.08405218773904445e-04
 17  5.73566785637956455e-04
 18 -1.67679616756572603e-04
 19  1.51880743264366409e-02
 20 -1.47034461941596790e-03
 21  4.05180133024383711e-04
 22 -2.33086883729825747e-03
 23  3.59777276615061837e-04
 24 -2.54438047881166106e-04
 25 -1.86159007420722933e-03
 26 -5.62460247967542681e-01
 27 -4.62948510042150096e-01
 28  5.20961961915257857e-04
 29  1.36981341031537610e-05
 30  4.98578327771480485e-04
 31 -1.97154377960463631e-02
 32 -1.66521252879432940e-03
 33  3.69095322153594656e-04
 34 -4.86911077196110730e-03
 35  1.48500750997324783e-02
 36 -2.06724642941896047e-03
 37 -6.16520069411387729e-04
 38  4.15059934428695532e-03
 39 -1.35764527292852959e-03
 40 -2.12690551538570428e-03
 41  1.63369356866147921e-04
 42 -1.14162695816235520e-03
 43 -5.63538880558088628e-05
 44 -2.57485632555291416e-02
 45  1.75693764273625406e-03
 46  8.02159043515797291e-04
 47 -5.99605190539894556e-03
 48 -3.71642633877446778e-04
 49  1.05636736262797052e-03
 50 -9.77732723263498608e-04
 51  1.00063181192646647e-03
 52  7.72696040074422638e-04
 53 -6.00974609229122658e-04
 54 -6.54184324280751350e-05
 55  7.29308703815577695e-05
 56 -1.27313913678915423e-04
 57  1.78189170370455716e-03
 58  1.43488145221950343e-04
 59 -5.65559818318236290e-04
 60 -4.82682480983442300e-03
 61 -2.69027711769128167e-03
 62 -4.83532405277031503e-04
 63 -2.79240611088129144e-03
 64 -7.22230439611683999e-04
 65  1.87592999019088174e-04
 66 -9.90644832117337272e-05
 67  8.28605621130620840e-04
 68  3.06627487365883562e-04
 69  1.94656796910134475e-02
 70  7.10364789932529765e-04
 71 -1.41485937207004662e-04
 72  2.66914501879410857e-03
 73  1.59599079881726330e-04
 74 -3.97656894779681313e-04
 75 -1.59888610786263147e-03
 76  1.26987954796737441e-05
 77 -7.01755329770721017e-05
 78 -3.57316743109952728e-05
 79 -1.38651112329226583e-05
 80  8.52080125184017897e-05
 81  4.06320892228907726e-04
 82  5.18834945845365056e-04
 83  4.69627412272370209e-05
 84 -7.75777632067908385e-04
 85  3.61170686360631939e-03
 86  1.52968506913606127e-03
 87  1.28492490968329999e-04
 88  3.72022898992100933e-04
 89  1.67545004612240341e-04