[Molden Format]
[Atoms] (AU)
C    1    6         2.629487081914       0.093476835175      -0.212912561290
H    2    1         4.611654542927       0.302615517583      -0.233944234755
C    3    6         1.374259263318       0.191322606791      -2.346684474049
H    4    1         2.346381966313       0.518776997128      -4.119567358050
C    5    6        -1.374258746478      -0.191322258704      -2.346683658821
H    6    1        -2.346380663536      -0.518778527239      -4.119566463454
C    7    6        -2.629487000845      -0.093475165602      -0.212912062969
H    8    1        -4.611654185013      -0.302615163448      -0.233943342048
C    9    6        -1.373192188454       0.455443034848       2.246402049504
H   10    1        -1.488313025050       2.498821411122       2.579052207052
H   11    1        -2.419542110438      -0.446949438545       3.775431299036
C   12    6         1.373191124160      -0.455443107792       2.246401431375
H   13    1         1.488312603264      -2.498821715368       2.579050874984
H   14    1         2.419541338107       0.446948974051       3.775430768968
[GTO]
  1 0
 s    6  1.00
     4563.2400000000         0.0019666500
      682.0240000000         0.0152306000
      154.9730000000         0.0761269000
       44.4553000000         0.2608010000
       13.0290000000         0.6164620000
        1.8277300000         0.2210060000
 s    3  1.00
       20.9642000000         0.1146600000
        4.8033100000         0.9199990000
        1.4593300000        -0.0030306800
 p    3  1.00
       20.9642000000         0.0402487000
        4.8033100000         0.2375940000
        1.4593300000         0.8158540000
 s    1  1.00
        0.4834560000         1.0000000000
 p    1  1.00
        0.4834560000         1.0000000000
 s    1  1.00
        0.1455850000         1.0000000000
 p    1  1.00
        0.1455850000         1.0000000000
 d    1  1.00
        0.6260000000         1.0000000000
 s    1  1.00
        0.0438000000         1.0000000000
 p    1  1.00
        0.0438000000         1.0000000000

  2 0
 s    3  1.00
       33.8650000000         0.0254938000
        5.0947900000         0.1903730000
        1.1587900000         0.8521610000
 s    1  1.00
        0.3258400000         1.0000000000
 s    1  1.00
        0.1027410000         1.0000000000

  3 0
 s    6  1.00
     4563.2400000000         0.0019666500
      682.0240000000         0.0152306000
      154.9730000000         0.0761269000
       44.4553000000         0.2608010000
       13.0290000000         0.6164620000
        1.8277300000         0.2210060000
 s    3  1.00
       20.9642000000         0.1146600000
        4.8033100000         0.9199990000
        1.4593300000        -0.0030306800
 p    3  1.00
       20.9642000000         0.0402487000
        4.8033100000         0.2375940000
        1.4593300000         0.8158540000
 s    1  1.00
        0.4834560000         1.0000000000
 p    1  1.00
        0.4834560000         1.0000000000
 s    1  1.00
        0.1455850000         1.0000000000
 p    1  1.00
        0.1455850000         1.0000000000
 d    1  1.00
        0.6260000000         1.0000000000
 s    1  1.00
        0.0438000000         1.0000000000
 p    1  1.00
        0.0438000000         1.0000000000

  4 0
 s    3  1.00
       33.8650000000         0.0254938000
        5.0947900000         0.1903730000
        1.1587900000         0.8521610000
 s    1  1.00
        0.3258400000         1.0000000000
 s    1  1.00
        0.1027410000         1.0000000000

  5 0
 s    6  1.00
     4563.2400000000         0.0019666500
      682.0240000000         0.0152306000
      154.9730000000         0.0761269000
       44.4553000000         0.2608010000
       13.0290000000         0.6164620000
        1.8277300000         0.2210060000
 s    3  1.00
       20.9642000000         0.1146600000
        4.8033100000         0.9199990000
        1.4593300000        -0.0030306800
 p    3  1.00
       20.9642000000         0.0402487000
        4.8033100000         0.2375940000
        1.4593300000         0.8158540000
 s    1  1.00
        0.4834560000         1.0000000000
 p    1  1.00
        0.4834560000         1.0000000000
 s    1  1.00
        0.1455850000         1.0000000000
 p    1  1.00
        0.1455850000         1.0000000000
 d    1  1.00
        0.6260000000         1.0000000000
 s    1  1.00
        0.0438000000         1.0000000000
 p    1  1.00
        0.0438000000         1.0000000000

  6 0
 s    3  1.00
       33.8650000000         0.0254938000
        5.0947900000         0.1903730000
        1.1587900000         0.8521610000
 s    1  1.00
        0.3258400000         1.0000000000
 s    1  1.00
        0.1027410000         1.0000000000

  7 0
 s    6  1.00
     4563.2400000000         0.0019666500
      682.0240000000         0.0152306000
      154.9730000000         0.0761269000
       44.4553000000         0.2608010000
       13.0290000000         0.6164620000
        1.8277300000         0.2210060000
 s    3  1.00
       20.9642000000         0.1146600000
        4.8033100000         0.9199990000
        1.4593300000        -0.0030306800
 p    3  1.00
       20.9642000000         0.0402487000
        4.8033100000         0.2375940000
        1.4593300000         0.8158540000
 s    1  1.00
        0.4834560000         1.0000000000
 p    1  1.00
        0.4834560000         1.0000000000
 s    1  1.00
        0.1455850000         1.0000000000
 p    1  1.00
        0.1455850000         1.0000000000
 d    1  1.00
        0.6260000000         1.0000000000
 s    1  1.00
        0.0438000000         1.0000000000
 p    1  1.00
        0.0438000000         1.0000000000

  8 0
 s    3  1.00
       33.8650000000         0.0254938000
        5.0947900000         0.1903730000
        1.1587900000         0.8521610000
 s    1  1.00
        0.3258400000         1.0000000000
 s    1  1.00
        0.1027410000         1.0000000000

  9 0
 s    6  1.00
     4563.2400000000         0.0019666500
      682.0240000000         0.0152306000
      154.9730000000         0.0761269000
       44.4553000000         0.2608010000
       13.0290000000         0.6164620000
        1.8277300000         0.2210060000
 s    3  1.00
       20.9642000000         0.1146600000
        4.8033100000         0.9199990000
        1.4593300000        -0.0030306800
 p    3  1.00
       20.9642000000         0.0402487000
        4.8033100000         0.2375940000
        1.4593300000         0.8158540000
 s    1  1.00
        0.4834560000         1.0000000000
 p    1  1.00
        0.4834560000         1.0000000000
 s    1  1.00
        0.1455850000         1.0000000000
 p    1  1.00
        0.1455850000         1.0000000000
 d    1  1.00
        0.6260000000         1.0000000000
 s    1  1.00
        0.0438000000         1.0000000000
 p    1  1.00
        0.0438000000         1.0000000000

  10 0
 s    3  1.00
       33.8650000000         0.0254938000
        5.0947900000         0.1903730000
        1.1587900000         0.8521610000
 s    1  1.00
        0.3258400000         1.0000000000
 s    1  1.00
        0.1027410000         1.0000000000

  11 0
 s    3  1.00
       33.8650000000         0.0254938000
        5.0947900000         0.1903730000
        1.1587900000         0.8521610000
 s    1  1.00
        0.3258400000         1.0000000000
 s    1  1.00
        0.1027410000         1.0000000000

  12 0
 s    6  1.00
     4563.2400000000         0.0019666500
      682.0240000000         0.0152306000
      154.9730000000         0.0761269000
       44.4553000000         0.2608010000
       13.0290000000         0.6164620000
        1.8277300000         0.2210060000
 s    3  1.00
       20.9642000000         0.1146600000
        4.8033100000         0.9199990000
        1.4593300000        -0.0030306800
 p    3  1.00
       20.9642000000         0.0402487000
        4.8033100000         0.2375940000
        1.4593300000         0.8158540000
 s    1  1.00
        0.4834560000         1.0000000000
 p    1  1.00
        0.4834560000         1.0000000000
 s    1  1.00
        0.1455850000         1.0000000000
 p    1  1.00
        0.1455850000         1.0000000000
 d    1  1.00
        0.6260000000         1.0000000000
 s    1  1.00
        0.0438000000         1.0000000000
 p    1  1.00
        0.0438000000         1.0000000000

  13 0
 s    3  1.00
       33.8650000000         0.0254938000
        5.0947900000         0.1903730000
        1.1587900000         0.8521610000
 s    1  1.00
        0.3258400000         1.0000000000
 s    1  1.00
        0.1027410000         1.0000000000

  14 0
 s    3  1.00
       33.8650000000         0.0254938000
        5.0947900000         0.1903730000
        1.1587900000         0.8521610000
 s    1  1.00
        0.3258400000         1.0000000000
 s    1  1.00
        0.1027410000         1.0000000000

[5D]
[9G]

[MO]
 Sym= A
 Ene= -1.37125938468965707e+01
 Spin= Alpha
 Occup=  1.00000000000000000e+00
  1 -5.39167598520382273e-05
  2  2.90202856820086599e-04
  3 -5.15209462029337959e-05
  4 -1.88372596372425056e-06
  5 -1.38337607286776219e-04
  6 -1.77908972755741511e-03
  7  1.44856953136477578e-03
  8 -5.26795372793763118e-05
  9  1.88390677100421780e-03
 10 -1.06510087795882199e-03
 11  8.79298469373041556e-04
 12  8.82402219595254753e-04
 13 -2.78836491904792369e-04
 14 -4.60942568439325442e-04
 15 -9.33627377588604830e-04
 16  2.05249893845902798e-04
 17  1.74894192806502165e-04
 18  5.33790307331298726e-05
 19  2.31363817168842058e-02
 20 -3.86522370706971711e-03
 21  2.27554277754049702e-03
 22 -2.14078604167818494e-02
 23 -2.19132174245384914e-04
 24 -3.77557490648556442e-04
 25  8.97394987877235344e-04
 26 -5.00304806821372624e-05
 27  2.95907971109591271e-04
 28 -8.21520827105195052e-04
 29 -1.02773328135021555e-04
 30 -3.37094749926070537e-04
 31 -1.31827443002284364e-03
 32  5.30303279484882050e-03
 33  5.66747957593992965e-04
 34  1.75338045313305833e-03
 35  1.57264420677581717e-03
 36 -2.64683007726249911e-03
 37 -7.64800203254305689e-04
 38  2.74444168941936439e-04
 39  2.47943873983019671e-03
 40  6.85238976463730634e-04
 41  8.93015064926527141e-05
 42 -1.35125600756299678e-03
 43 -4.66148769733995994e-04
 44 -6.12086624340359639e-02
 45 -7.12481866239176448e-03
 46  3.81144244220850935e-04
 47 -1.14495611063859613e-02
 48 -3.38724542747539557e-04
 49 -1.80555512854081111e-04
 50  2.93307296641035333e-03
 51 -4.66180824955463816e-04
 52  2.01364269304323560e-03
 53 -1.95488323804033064e-03
 54  5.12109992169114755e-05
 55  2.35399630308460311e-03
 56 -8.47637604553477461e-03
 57  1.37568179894547882e-02
 58 -5.47766951665307742e-04
 59 -1.85322531532354194e-02
 60  6.87989701391685362e-04
 61 -1.55125426046800671e-03
 62  1.38366790626103030e-03
 63  9.16091853638965718e-03
 64 -7.56458164927841827e-03
 65  8.82074459888302666e-03
 66 -5.23950922841384496e-04
 67 -1.04748265093163972e-03
 68  8.59036892754180565e-04
 69 -2.39433772997545286e-02
 70  7.52312107413893091e-03
 71 -1.56590749643331661e-03
 72 -1.20468970647436588e-03
 73 -1.15895988441341575e-03
 74  6.07813248461266551e-04
 75  5.56947163343668537e-03
 76 -6.23803134273984594e-01
 77 -4.21211493384440472e-01
 78 -1.97060405659492399e-03
 79 -7.61239560660048641e-05
 80  1.67883063756933833e-03
 81  5.91400188773978791e-02
 82  1.25124829113409247e-02
 83  1.57630289577436784e-04
 84 -1.27617371809164871e-02
 85 -4.38309623139986893e-02
 86 -1.06731034730768986e-02
 87 -1.83921050736523856e-03
 88  1.40100193472532169e-03
 89  7.12880285198433904e-03
 90 -5.52711391696259022e-03
 91  1.07837956353565062e-03
 92  1.97760912924590691e-03
 93 -1.17128741372843088e-04
 94  5.37535679739384528e-02
 95  1.38294416555346869e-02
 96  4.47585352864704640e-03
 97 -6.82895495735733136e-03
 98  9.20083329991344559e-05
 99 -2.39262317160700375e-03
100  4.71722821301011862e-03
101 -8.46758061718231572e-05
102  4.69034369502986702e-04
103 -8.85843289202098991e-04
104 -3.27570404761971400e-04
105 -1.44325595036590409e-03
106 -4.38958950261394130e-04
107  2.92490175875479352e-03
108  9.85965265856056676e-04
109  4.56341305773909529e-03
110  5.84593032423632100e-03
111 -6.92284920909226522e-04
112  1.18689309893445466e-03
113 -4.89660474183031737e-03
114 -2.68403993170564974e-03
115 -2.82913879219990130e-03
116 -1.25954989049994548e-03
117 -9.13989769871136276e-04
118 -9.33925202269099636e-04
119  1.14828863174898065e-02
120  5.81391297414603561e-03
121 -6.48785719152380862e-03
122  6.23736979355104387e-03
123 -7.01743406371146592e-04
124 -9.24538679252018595e-04
125 -3.28097118496770271e-05
126 -6.19851460201100574e-04
127  5.65442661132812652e-04
128 -9.40339865846639717e-04
129 -3.68018665744278593e-05
130  2.30993374281280125e-04
131 -2.22967528336407306e-04
132 -1.09553958839490519e-05
133  6.40171121228510500e-05
134 -1.41753096760657469e-03
135  1.24450730680497699e-03
136 -1.44082635937602268e-04
137  1.40270072907936209e-04
138  2.13733993323235449e-03
139 -1.96345222148490862e-03
140 -2.90930302372899253e-03
141 -1.21333920255510606e-03
142  4.17247806651752215e-04
143  4.06601599388194709e-04
144  1.61705727518538683e-04
145 -3.14252702031159875e-04
146  2.36921829985371627e-04
147 -1.95734142363090339e-03
148  1.53526825497057439e-02
149  1.79515966265276095e-03
150 -5.75020069252089091e-03
151  3.39960827735839171e-04
152 -2.20160589975909029e-03
153 -1.90441145466880039e-04
154 -3.16359201251080577e-04
155  6.35520992148888748e-04
156  1.41121897760268533e-03
 Sym= A
 Ene= -1.15285717233912415e+01
 Spin= Alpha
 Occup=  1.00000000000000000e+00
  1  2.50606978960247541e-05
  2  1.34601387838958405e-05
  3  7.56502806427202944e-06
  4 -4.07175140006008557e-06
  5  5.24759818011208376e-06
  6  4.52393209145133453e-05
  7 -3.56351110186398854e-05
  8  1.01263514839763347e-05
  9 -4.69279917133543878e-05
 10  3.04212788210742024e-05
 11  5.14905087036352901e-05
 12  5.56096122061829692e-06
 13 -1.35794153146686167e-05
 14 -3.10359542308954011e-06
 15  2.20848430600735383e-05
 16 -2.94253093950630832e-06
 17  3.86165383726684074e-06
 18 -4.65110623528144882e-06
 19 -6.98472810483146528e-04
 20  1.25317371652514407e-04
 21  6.92030367251476842e-05
 22 -5.78991293183719977e-04
 23  6.07786262691127831e-06
 24 -7.71591441412260895e-06
 25  2.84019183266027293e-07
 26  2.25741737630403725e-03
 27  1.81811700135040195e-03
 28 -1.58580776975088207e-04
 29 -2.09914105827196544e-05
 30 -1.19977523864448714e-06
 31  2.63342663892506901e-04
 32 -1.56494609435608745e-04
 33 -1.82067872045436991e-05
 34 -2.72873631052332366e-05
 35 -7.16774914917612090e-07
 36 -9.16055288873616146e-05
 37 -1.63568021220581841e-05
 38 -5.65839779968536170e-05
 39 -1.02595319242876942e-04
 40 -3.61635798699943534e-05
 41 -8.67780218335660609e-06
 42 -1.61778433095143390e-07
 43 -2.45549745233963788e-06
 44 -1.49398492430805898e-03
 45 -6.29854941326191207e-05
 46 -9.71511338800086506e-06
 47 -2.48817650392367485e-05
 48  4.27041748883799736e-06
 49 -1.57583206119714031e-06
 50  3.00251814719368815e-05
 51  5.63531314751628321e-01
 52  4.66715362311051540e-01
 53 -4.52542549968097869e-04
 54 -2.11764261196327487e-05
 55  7.15332652002628267e-04
 56  3.15501359101954789e-03
 57  3.45400056604682035e-04
 58  1.28612357934755763e-05
 59 -5.40598303159295726e-04
 60 -1.93270612854112102e-04
 61 -3.30116003969870421e-04
 62 -5.83397444639998697e-06
 63  4.49745687698772261e-04
 64  2.74180835713871052e-04
 65  8.24079296955129969e-05
 66  1.33650289213135235e-04
 67  5.42907827949950920e-04
 68  1.54462688659051835e-04
 69 -2.28680798156552392e-04
 70  9.39089795961763345e-04
 71  1.18069194632400607e-04
 72  8.27028370554922572e-05
 73  3.59671473849061110e-04
 74 -1.72073254038223472e-04
 75  5.25498374339935462e-04
 76 -3.71037161173049575e-04
 77 -3.51372578311383126e-04
 78  1.94837366796846590e-04
 79 -1.00557410686087283e-05
 80 -3.11026000965303412e-04
 81  7.35147583915940462e-04
 82  2.07796340908929911e-04
 83 -3.05122056199593207e-05
 84 -4.24766883921550245e-04
 85 -6.17129886491396681e-04
 86 -1.32601241894092887e-05
 87  3.67399620316454965e-05
 88  2.89009812066921259e-04
 89  1.19151493398280591e-04
 90 -2.30415711603206924e-04
 91 -1.23853861665609993e-05
 92 -5.78379340780943882e-05
 93 -4.45190567860208371e-05
 94 -3.19550678907803607e-05
 95 -1.44217629620235755e-04
 96 -8.78402275378174714e-05
 97 -9.43358792424716817e-04
 98  2.69128531177519649e-05
 99  4.51992165407458569e-05
100  9.50935277241598990e-06
101 -5.85742259988670462e-05
102 -5.78074496550771809e-05
103 -1.82695484041807992e-06
104  1.37102403725676399e-06
105  1.75899724865622601e-05
106  5.66988064561058932e-05
107 -6.99953343592217739e-06
108 -1.00657950991365319e-05
109 -7.25801475677018999e-05
110 -1.65863961863101409e-04
111 -1.48489320160355097e-05
112  3.25526337512299779e-05
113  1.00138564254997499e-04
114  3.28062557606966288e-05
115  2.46855822608976034e-06
116  8.89733126551869645e-06
117 -1.64408186495724973e-05
118  1.44826233478952610e-06
119  1.69362828347261168e-03
120 -2.09209711798111984e-04
121 -2.55245664479580978e-04
122 -2.12555051023243316e-04
123 -4.41042396510922295e-06
124  1.57950553959200631e-05
125 -5.66197403183990602e-05
126  3.41848654217903443e-08
127  3.64429094124692337e-05
128 -1.40064116924257649e-04
129 -2.10751894201944893e-05
130 -1.88538648599704513e-05
131  4.08021159639134918e-06
132 -2.96127454547260184e-06
133  4.70133286809785306e-06
134 -2.59145698334190867e-06
135 -1.31804166585372748e-05
136  1.07141373293666990e-05
137 -1.11398852112277016e-05
138  9.48003170757907810e-05
139 -1.77495166228243312e-06
140 -6.57256113180722166e-06
141  1.87416598059079544e-05
142 -2.78660367342424938e-06
143 -6.62055498275020284e-06
144 -1.59694610365320128e-06
145  2.85705252791249503e-06
146 -4.62458984860948697e-06
147  9.02996847922311668e-04
148  3.55123564501153173e-04
149  1.80670550143963334e-04
150 -2.20278341456833505e-04
151  3.50447838505596084e-06
152 -2.28746797110138984e-05
153 -1.91482200788381121e-05
154  1.37758507748579745e-06
155  8.73991578730469739e-07
156 -8.92141503025495710e-05
 Sym= A
 Ene= -1.14609076447194376e+01
 Spin= Alpha
 Occup=  1.00000000000000000e+00
  1 -3.71873958100098033e-05
  2 -2.91080566629890318e-05
  3 -5.22531396981038472e-07
  4  2.10245111715885871e-06
  5  7.26681362892167161e-08
  6 -3.34180078377282124e-05
  7  1.95672825298458533e-05
  8 -2.10197605401695645e-06
  9 -1.98112000795692224e-05
 10 -8.17758183541224184e-05
 11 -6.63212875878382862e-05
 12 -3.46617823099091061e-05
 13  9.01593091456196958e-05
 14  1.12376503336197411e-05
 15  2.89329610047631515e-06
 16 -9.88535957706861014e-06
 17  1.00875110092348865e-05
 18 -1.23890652593616415e-05
 19 -2.80550886011733062e-03
 20  4.28842508996813527e-04
 21  2.30022110988441014e-05
 22 -4.14996677546771939e-04
 23 -4.40704886697961407e-07
 24  2.31120233263693547e-05
 25  1.08111741881613971e-04
 26 -5.80348288299950408e-05
 27 -4.61649237536460253e-05
 28  9.67552393630956466e-06
 29  3.95867473531567503e-06
 30  5.71137242907961253e-06
 31 -3.13683809898501913e-05
 32 -5.38592376907400834e-05
 33 -2.04724920141481733e-05
 34 -4.25085589435855621e-05
 35  4.57032435481115426e-04
 36 -1.40042351573128491e-04
 37 -3.37573899860817298e-06
 38  1.73148460336502834e-04
 39 -1.94394592058607601e-05
 40 -2.75484038784993821e-06
 41 -4.67189588370499653e-07
 42  2.23047252877665335e-05
 43  2.95246540218332648e-06
 44  1.99325790189326668e-03
 45 -3.35366501393877508e-04
 46  2.14286068448317795e-05
 47  3.50260888288579598e-04
 48 -2.63522412025800033e-06
 49  2.33466226122699304e-05
 50  2.21226439346095250e-05
 51  6.58830705797555606e-05
 52  4.67480812423392181e-05
 53  5.92640973911699938e-06
 54  3.05690550019938769e-06
 55 -1.53002893993068869e-06
 56  8.11801327474310678e-05
 57 -5.44870973083932855e-05
 58 -1.04223718062086504e-05
 59  5.16618364572271643e-05
 60 -5.99249191010703180e-04
 61 -3.61399151001001186e-04
 62 -6.65918151973431008e-05
 63 -4.16212883798526881e-04
 64  3.96016647931924420e-05
 65 -3.55222591756943572e-05
 66  4.88260835522382039e-06
 67 -2.53439698592200896e-05
 68 -1.03537574149832771e-05
 69 -2.24227952787633142e-03
 70 -2.19010880148106041e-04
 71 -1.19289238570081227e-04
 72 -3.65239681378704386e-04
 73  1.64708269134989274e-05
 74 -9.35031751729650709e-05
 75 -9.49033904581939985e-05
 76 -1.38900200613732076e-04
 77 -1.89143470160377930e-04
 78  7.20129783661154865e-05
 79  3.03551342274060725e-05
 80  1.27849381799074319e-04
 81  4.07023813989528676e-04
 82  2.90205849954464480e-04
 83  1.34646196553514714e-04
 84  6.80502894913580019e-04
 85  1.39546306521607906e-03
 86  6.79122224479199762e-04
 87  1.19212146488309990e-04
 88  3.85154777673318285e-04
 89  2.09221297769853420e-04
 90  2.91081102322617827e-04
 91  9.76640333671092655e-05
 92  4.98802173705260692e-05
 93  5.70904613532892074e-05
 94  2.30495997847597611e-03
 95  2.96202416250129601e-04
 96  1.29558671050965224e-04
 97  6.61814285509681452e-05
 98  1.02425453600175209e-05
 99  5.08191989698791155e-05
100  1.31079335964313454e-04
101  5.63446900373498538e-01
102  4.66574636117004116e-01
103 -4.66140363667918295e-04
104 -3.06148226704320420e-04
105 -1.17561166120809567e-03
106  4.17233269130172415e-03
107  3.89502249442842479e-04
108  2.81825722238441395e-04
109  1.04870381650979988e-03
110 -3.31976183309428720e-03
111 -3.06442360941547515e-04
112  4.21973115300267130e-05
113  6.15045210898701190e-05
114 -3.00882324181211643e-04
115 -3.52422458773433652e-04
116 -1.84237356151845122e-04
117 -1.13831509134939681e-04
118 -2.22837300781291029e-05
119 -3.06907751460910264e-03
120 -8.88591609616410673e-05
121  6.66464713743842397e-05
122  3.94074638819444400e-04
123  3.12178163308448448e-04
124  1.89982708773037899e-04
125  7.19027329745912337e-04
126  3.08463649478432492e-04
127  1.38855892679554392e-04
128  7.20358023667549952e-04
129  3.80802438947906328e-03
130  3.10121227444757567e-03
131 -1.19097942267853697e-04
132  4.70989904367208670e-05
133  1.09839586326257694e-05
134  2.45212213883826201e-04
135 -2.65077393138189602e-04
136  5.38130848044011194e-05
137 -4.18435218515676610e-05
138  8.38040914352816409e-04
139 -3.90236540843670924e-04
140  2.45254947305499052e-04
141  1.58742534029935120e-04
142 -4.71334512377357255e-05
143  4.25195667285628321e-05
144  1.31523382094010767e-06
145  7.88542122516345092e-05
146 -3.82834386306327165e-05
147  3.42659932942600449e-03
148 -9.88547632314987798e-05
149  3.06450299094598963e-04
150 -5.97390917149130023e-04
151 -6.57793065226325526e-06
152  1.37061491421698603e-05
153 -4.49492517776327251e-05
154  4.23686466309640195e-06
155 -7.45678073732709606e-05
156 -1.56160010955953534e-04
 Sym= A
 Ene= -1.14301078631091944e+01
 Spin= Alpha
 Occup=  1.00000000000000000e+00
  1 -5.56061111746233516e-01
  2 -4.60522777078770151e-01
  3  1.14439782012164070e-04
  4  4.76610087059500402e-05
  5 -1.33300544593284356e-04
  6 -3.83574031814796785e-03
  7  9.37679676567868507e-05
  8 -4.97555024780247653e-05
  9  5.01705084502659395e-04
 10 -9.17600115716247914e-05
 11  1.83148795799837515e-04
 12 -1.50688566781548033e-05
 13  1.03991299089473654e-05
 14 -4.14638938487659815e-04
 15 -3.04171019676860509e-04
 16  1.43409761198031008e-04
 17 -6.09036884456481552e-04
 18 -9.28129799293270327e-05
 19  1.74398009372405023e-03
 20  1.56205052609003335e-04
 21  1.58550950614147300e-04
 22  5.74326734675344544e-05
 23 -4.21995674060861043e-04
 24  2.28837386291990926e-04
 25 -4.84496607044063079e-04
 26 -8.92101317198512184e-02
 27 -7.38412293265899855e-02
 28 -2.69754087705223529e-05
 29  2.40831988592495896e-05
 30 -2.36600237163343033e-04
 31 -1.07252002234960501e-03
 32 -7.90686737639822106e-05
 33 -1.67374884366150529e-05
 34  1.43036074477246369e-05
 35  1.00634934201049623e-03
 36 -9.46251323069557113e-06
 37  8.00182072702340320e-06
 38  2.22623949100117562e-04
 39 -2.15808346008804851e-05
 40 -7.21164315223052734e-05
 41 -1.75561871846791873e-05
 42  1.15548870657837343e-04
 43  3.90962798896759363e-05
 44 -1.57318576163967662e-03
 45 -8.26534569031234050e-05
 46 -4.54648862844230257e-05
 47 -6.88330821814712871e-04
 48 -7.18195679097597577e-05
 49  1.72214752649191386e-05
 50 -7.09324692479049146e-05
 51  3.97607914982805522e-04
 52  3.46128047686006962e-04
 53 -9.68867991281097482e-06
 54 -5.27841497549033758e-07
 55  6.88711762650611900e-06
 56 -5.17738775615618913e-05
 57 -1.11732385961417591e-04
 58 -1.13867438640985367e-05
 59 -1.82262839982183796e-05
 60 -5.19622693374452980e-04
 61 -7.12099702725857349e-05
 62 -4.33355421715204926e-05
 63 -2.74412775562892907e-04
 64  2.75229620335683290e-05
 65 -3.85488241037962694e-05
 66 -6.17148626694539979e-06
 67 -2.03734278505718485e-05
 68 -1.26512750532871094e-06
 69  3.37761432130683024e-03
 70 -5.30764755899439371e-04
 71  1.82036338152950889e-06
 72  8.08573031176903329e-04
 73  2.09613471787328480e-06
 74 -3.04424951108852712e-05
 75 -1.09322217953605340e-04
 76 -5.64269362416266923e-06
 77  1.07471581386254036e-06
 78  7.58814028740261038e-06
 79 -7.54788640466442119e-09
 80 -2.26214803103737651e-07
 81 -4.07246428777364970e-05
 82 -1.55159746998322556e-05
 83  2.58071210639117612e-06
 84  1.33035746574759604e-05
 85  4.45295558376301208e-04
 86  3.03217937435046304e-04
 87  4.42970345850395979e-05
 88 -8.82399264762956452e-05
 89 -9.24034337596052326e-06
 90 -1.27698899515714431e-06
 91 -9.15466979449277317e-07
 92 -2.06579161318940874e-07
 93  3.03623776615789481e-06
 94 -1.54351584884735837e-03
 95 -1.76529612809613902e-04
 96  1.07393425166641389e-04
 97  1.24327017497324801e-03
 98 -8.42076311835898967e-06
 99  4.04891917822044545e-05
100  8.08464641197593261e-05
101  5.48077016549573944e-05
102  5.06039681220065761e-05
103  1.21029503596921013e-05
104 -8.52718556102342035e-06
105 -4.74472511727723645e-06
106  1.32797901920254105e-05
107 -5.72399072491575127e-05
108  3.98830181902392293e-05
109  1.47156063460770302e-05
110 -4.11414107096225797e-04
111 -1.31473040235795442e-04
112 -7.12005822525992531e-05
113  6.20070074693043137e-05
114  2.14628989939318404e-05
115  5.48596854295774449e-06
116 -7.73736602359233768e-06
117 -1.52699078307919004e-05
118  2.70408417591368864e-05
119 -4.02451474254776468e-04
120  7.08474868812061635e-04
121  1.88988358812942426e-04
122  2.41485893941896306e-04
123 -1.15395394316350763e-05
124  9.08621934336082272e-05
125  2.54435030299771900e-05
126 -4.46101135093345744e-06
127 -1.48552863642744658e-05
128  7.21547498801786776e-05
129 -1.49918697622548770e-02
130 -1.23419133207677036e-02
131 -5.02353632537218641e-05
132 -3.86073556656860623e-05
133  1.25624620519504393e-04
134 -4.86465602311472939e-04
135 -1.58829490165252469e-04
136 -4.33573783739203694e-05
137  2.78255967942885984e-04
138  5.65140941716913326e-04
139 -2.45755727146862031e-05
140  1.54681102031888003e-04
141 -1.02674323173109353e-04
142 -1.04970581054610168e-04
143  9.62752472544855988e-05
144  3.64232764603995832e-05
145  5.69112056117810440e-05
146 -2.46201227627898338e-05
147 -1.81391219766675795e-03
148  3.56496392295727000e-05
149 -3.95255655398955928e-04
150  1.31508017503780992e-04
151  8.00892846484319971e-06
152 -3.61847596623989152e-05
153  9.27337568988067005e-05
154 -6.42596331353376308e-06
155 -1.25206325949324735e-04
156  1.72374136011801959e-04
 Sym= A
 Ene= -1.14241336454200031e+01
 Spin= Alpha
 Occup=  1.00000000000000000e+00
  1  8.94235380150177200e-02
  2  7.40786187327373002e-02
  3  1.48567759425689139e-04
  4 -2.65113018115547868e-05
  5  3.20908994455627395e-04
  6  5.27281782099392297e-04
  7 -2.13651473368164631e-04
  8  3.08178256117467271e-05
  9 -5.18426073094912718e-04
 10 -1.75751435835616463e-04
 11  3.14817768578965016e-04
 12 -2.08228481265719855e-05
 13  1.82498674999809370e-04
 14  2.06690881130543300e-04
 15  1.80145595651165074e-04
 16 -4.51603734881744371e-05
 17  1.97978809440131290e-04
 18  2.65789526091535894e-05
 19  2.49036393747573831e-03
 20 -1.98926005550976494e-04
 21  1.22605149255697099e-04
 22 -4.20664713163220166e-04
 23  8.61333745962219175e-05
 24 -5.47421977039754836e-05
 25 -1.48838834760589767e-04
 26 -5.56017642314792893e-01
 27 -4.60556264447788688e-01
 28  7.31295870661447423e-04
 29  7.54345811743119596e-05
 30  9.37933623012979592e-05
 31 -5.26286635166192413e-03
 32 -8.94160572257309103e-04
 33 -2.65577484059914190e-05
 34 -7.32315911092275393e-04
 35  1.71969099441841812e-03
 36 -4.66210204407233188e-05
 37 -4.29483641032322609e-05
 38  5.78423091328888030e-04
 39 -4.28253399715173145e-04
 40 -3.62336866931495716e-04
 41  4.38155039772414564e-05
 42 -5.57739133195830444e-05
 43  4.06747549969967083e-05
 44 -3.50925688049343607e-03
 45 -4.72266836284206145e-05
 46  7.31871097552060925e-05
 47 -1.23884069463457334e-03
 48 -4.10135378888249987e-04
 49  2.04880025099481443e-04
 50 -3.06611985159221706e-04
 51  2.35007895226568017e-03
 52  2.03315560818086161e-03
 53 -1.46234058628647777e-04
 54 -2.03401657514724314e-05
 55 -1.21849974468759003e-05
 56 -3.31184040933051429e-04
 57 -4.98032641176473600e-04
 58 -6.44787818175177502e-05
 59  7.76474790259651046e-05
 60 -9.09828100113874117e-04
 61 -2.35204926211137578e-04
 62 -7.21250806160038811e-05
 63 -6.34211582981754861e-04
 64  1.85688004719346755e-04
 65 -4.79219288531958871e-05
 66 -8.29335045497344513e-06
 67 -1.23374747611970230e-04
 68 -3.10477724441726201e-05
 69  3.76335030339322975e-03
 70 -4.53237555586101916e-04
 71 -5.99599528777317630e-05
 72  8.98428763618046560e-04
 73  1.08913190307266069e-06
 74 -9.01165598301867409e-05
 75 -2.08331898138249964e-04
 76 -1.08035175776293604e-05
 77  3.27206119952969157e-06
 78  6.09807925825197964e-06
 79 -5.03916047605064342e-06
 80 -1.16709507885112008e-05
 81 -9.24119613451941852e-05
 82 -2.97443406077088044e-05
 83  3.01324326666749440e-05
 84  9.10372921472714245e-05
 85  8.24068971824352828e-04
 86  4.47684405949139001e-04
 87  2.40279480946973166e-05
 88 -7.57830246133608856e-05
 89 -6.44159489055019975e-06