[Molden Format]
[Atoms] (AU)
C    1    6         2.674339352612       0.165952383113      -0.194478460003
H    2    1         4.696468756380       0.431127150414      -0.059281190058
C    3    6         1.361478335750       0.243835370266      -2.347028102226
H    4    1         2.314527002872       0.639502474174      -4.115569058884
C    5    6        -1.361478248634      -0.243835521633      -2.347028057628
H    6    1        -2.314527009864      -0.639502619116      -4.115568975358
C    7    6        -2.674339318219      -0.165952220597      -0.194478461326
H    8    1        -4.696468717452      -0.431126958040      -0.059281149240
C    9    6        -1.309901954059       0.490612928269       2.198212914587
H   10    1        -1.257269329980       2.492746154223       2.413534157646
H   11    1        -2.293233780350      -0.216766239337       3.792386996332
C   12    6         1.309901914563      -0.490612881026       2.198212900792
H   13    1         1.257269240218      -2.492746137782       2.413533902722
H   14    1         2.293233756162       0.216766117261       3.792387058504
[GTO]
  1 0
 s    6  1.00
     4563.2400000000         0.0019666500
      682.0240000000         0.0152306000
      154.9730000000         0.0761269000
       44.4553000000         0.2608010000
       13.0290000000         0.6164620000
        1.8277300000         0.2210060000
 s    3  1.00
       20.9642000000         0.1146600000
        4.8033100000         0.9199990000
        1.4593300000        -0.0030306800
 p    3  1.00
       20.9642000000         0.0402487000
        4.8033100000         0.2375940000
        1.4593300000         0.8158540000
 s    1  1.00
        0.4834560000         1.0000000000
 p    1  1.00
        0.4834560000         1.0000000000
 s    1  1.00
        0.1455850000         1.0000000000
 p    1  1.00
        0.1455850000         1.0000000000
 d    1  1.00
        0.6260000000         1.0000000000
 s    1  1.00
        0.0438000000         1.0000000000
 p    1  1.00
        0.0438000000         1.0000000000

  2 0
 s    3  1.00
       33.8650000000         0.0254938000
        5.0947900000         0.1903730000
        1.1587900000         0.8521610000
 s    1  1.00
        0.3258400000         1.0000000000
 s    1  1.00
        0.1027410000         1.0000000000

  3 0
 s    6  1.00
     4563.2400000000         0.0019666500
      682.0240000000         0.0152306000
      154.9730000000         0.0761269000
       44.4553000000         0.2608010000
       13.0290000000         0.6164620000
        1.8277300000         0.2210060000
 s    3  1.00
       20.9642000000         0.1146600000
        4.8033100000         0.9199990000
        1.4593300000        -0.0030306800
 p    3  1.00
       20.9642000000         0.0402487000
        4.8033100000         0.2375940000
        1.4593300000         0.8158540000
 s    1  1.00
        0.4834560000         1.0000000000
 p    1  1.00
        0.4834560000         1.0000000000
 s    1  1.00
        0.1455850000         1.0000000000
 p    1  1.00
        0.1455850000         1.0000000000
 d    1  1.00
        0.6260000000         1.0000000000
 s    1  1.00
        0.0438000000         1.0000000000
 p    1  1.00
        0.0438000000         1.0000000000

  4 0
 s    3  1.00
       33.8650000000         0.0254938000
        5.0947900000         0.1903730000
        1.1587900000         0.8521610000
 s    1  1.00
        0.3258400000         1.0000000000
 s    1  1.00
        0.1027410000         1.0000000000

  5 0
 s    6  1.00
     4563.2400000000         0.0019666500
      682.0240000000         0.0152306000
      154.9730000000         0.0761269000
       44.4553000000         0.2608010000
       13.0290000000         0.6164620000
        1.8277300000         0.2210060000
 s    3  1.00
       20.9642000000         0.1146600000
        4.8033100000         0.9199990000
        1.4593300000        -0.0030306800
 p    3  1.00
       20.9642000000         0.0402487000
        4.8033100000         0.2375940000
        1.4593300000         0.8158540000
 s    1  1.00
        0.4834560000         1.0000000000
 p    1  1.00
        0.4834560000         1.0000000000
 s    1  1.00
        0.1455850000         1.0000000000
 p    1  1.00
        0.1455850000         1.0000000000
 d    1  1.00
        0.6260000000         1.0000000000
 s    1  1.00
        0.0438000000         1.0000000000
 p    1  1.00
        0.0438000000         1.0000000000

  6 0
 s    3  1.00
       33.8650000000         0.0254938000
        5.0947900000         0.1903730000
        1.1587900000         0.8521610000
 s    1  1.00
        0.3258400000         1.0000000000
 s    1  1.00
        0.1027410000         1.0000000000

  7 0
 s    6  1.00
     4563.2400000000         0.0019666500
      682.0240000000         0.0152306000
      154.9730000000         0.0761269000
       44.4553000000         0.2608010000
       13.0290000000         0.6164620000
        1.8277300000         0.2210060000
 s    3  1.00
       20.9642000000         0.1146600000
        4.8033100000         0.9199990000
        1.4593300000        -0.0030306800
 p    3  1.00
       20.9642000000         0.0402487000
        4.8033100000         0.2375940000
        1.4593300000         0.8158540000
 s    1  1.00
        0.4834560000         1.0000000000
 p    1  1.00
        0.4834560000         1.0000000000
 s    1  1.00
        0.1455850000         1.0000000000
 p    1  1.00
        0.1455850000         1.0000000000
 d    1  1.00
        0.6260000000         1.0000000000
 s    1  1.00
        0.0438000000         1.0000000000
 p    1  1.00
        0.0438000000         1.0000000000

  8 0
 s    3  1.00
       33.8650000000         0.0254938000
        5.0947900000         0.1903730000
        1.1587900000         0.8521610000
 s    1  1.00
        0.3258400000         1.0000000000
 s    1  1.00
        0.1027410000         1.0000000000

  9 0
 s    6  1.00
     4563.2400000000         0.0019666500
      682.0240000000         0.0152306000
      154.9730000000         0.0761269000
       44.4553000000         0.2608010000
       13.0290000000         0.6164620000
        1.8277300000         0.2210060000
 s    3  1.00
       20.9642000000         0.1146600000
        4.8033100000         0.9199990000
        1.4593300000        -0.0030306800
 p    3  1.00
       20.9642000000         0.0402487000
        4.8033100000         0.2375940000
        1.4593300000         0.8158540000
 s    1  1.00
        0.4834560000         1.0000000000
 p    1  1.00
        0.4834560000         1.0000000000
 s    1  1.00
        0.1455850000         1.0000000000
 p    1  1.00
        0.1455850000         1.0000000000
 d    1  1.00
        0.6260000000         1.0000000000
 s    1  1.00
        0.0438000000         1.0000000000
 p    1  1.00
        0.0438000000         1.0000000000

  10 0
 s    3  1.00
       33.8650000000         0.0254938000
        5.0947900000         0.1903730000
        1.1587900000         0.8521610000
 s    1  1.00
        0.3258400000         1.0000000000
 s    1  1.00
        0.1027410000         1.0000000000

  11 0
 s    3  1.00
       33.8650000000         0.0254938000
        5.0947900000         0.1903730000
        1.1587900000         0.8521610000
 s    1  1.00
        0.3258400000         1.0000000000
 s    1  1.00
        0.1027410000         1.0000000000

  12 0
 s    6  1.00
     4563.2400000000         0.0019666500
      682.0240000000         0.0152306000
      154.9730000000         0.0761269000
       44.4553000000         0.2608010000
       13.0290000000         0.6164620000
        1.8277300000         0.2210060000
 s    3  1.00
       20.9642000000         0.1146600000
        4.8033100000         0.9199990000
        1.4593300000        -0.0030306800
 p    3  1.00
       20.9642000000         0.0402487000
        4.8033100000         0.2375940000
        1.4593300000         0.8158540000
 s    1  1.00
        0.4834560000         1.0000000000
 p    1  1.00
        0.4834560000         1.0000000000
 s    1  1.00
        0.1455850000         1.0000000000
 p    1  1.00
        0.1455850000         1.0000000000
 d    1  1.00
        0.6260000000         1.0000000000
 s    1  1.00
        0.0438000000         1.0000000000
 p    1  1.00
        0.0438000000         1.0000000000

  13 0
 s    3  1.00
       33.8650000000         0.0254938000
        5.0947900000         0.1903730000
        1.1587900000         0.8521610000
 s    1  1.00
        0.3258400000         1.0000000000
 s    1  1.00
        0.1027410000         1.0000000000

  14 0
 s    3  1.00
       33.8650000000         0.0254938000
        5.0947900000         0.1903730000
        1.1587900000         0.8521610000
 s    1  1.00
        0.3258400000         1.0000000000
 s    1  1.00
        0.1027410000         1.0000000000

[5D]
[9G]

[MO]
 Sym= A
 Ene= -1.25802822076908534e+01
 Spin= Alpha
 Occup=  1.00000000000000000e+00
  1 -3.82874703328850530e-05
  2  2.20762610673431282e-04
  3 -2.83241167357119463e-05
  4 -7.57309168496005623e-05
  5  2.85240651024819150e-04
  6 -1.35691992076494589e-03
  7  8.24205853191368413e-04
  8  2.92783145174303587e-04
  9 -1.45471618280400435e-03
 10 -3.31580504818042559e-03
 11  6.32099938079838425e-04
 12  1.70841397735558030e-04
 13  1.85593311870440236e-03
 14 -6.32289630555510438e-04
 15  4.91950191464729384e-04
 16  8.52911236103857554e-05
 17  5.03734368870523141e-04
 18 -5.80440444484836842e-04
 19 -3.00470255734650582e-02
 20  5.07157949333306851e-03
 21  7.23310072489791091e-04
 22 -1.11796702920382747e-02
 23 -2.19876616384676623e-04
 24 -1.57421379048159975e-04
 25  1.26251763674029623e-03
 26 -3.95437177347095128e-05
 27  2.35990467050795983e-04
 28 -1.44809063289257192e-04
 29  7.22107114861026198e-05
 30  8.89460493357394040e-05
 31 -1.85003341406735577e-03
 32  8.64517951449941487e-04
 33 -2.09200244710406631e-04
 34 -8.60906915521194704e-04
 35  9.22576650521171084e-03
 36 -4.24207792593322714e-03
 37 -7.47254218290044608e-04
 38  5.42681614168133864e-03
 39  2.13773929799880564e-04
 40 -2.04227187955807705e-05
 41 -9.70960498799437830e-06
 42  1.18727042012233932e-04
 43 -1.17462215211746137e-04
 44  2.90310410703138733e-02
 45 -1.08897219380146258e-02
 46 -6.07560817971618001e-04
 47  3.83089948966104004e-03
 48 -2.81768915519692667e-04
 49  9.93363390708363160e-04
 50  2.14947092585380086e-03
 51 -6.29824053542704551e-05
 52  3.23533329035068378e-04
 53 -3.01870773806180029e-04
 54  4.59906637840965752e-05
 55  2.60626161579019934e-04
 56 -1.82195190365589603e-03
 57  2.05900931950787729e-03
 58 -3.44120272118089569e-04
 59 -3.11044895236249185e-03
 60 -8.54224286484849341e-03
 61 -5.78021639631281885e-03
 62 -6.76362751362968384e-04
 63 -3.90393752162988307e-03
 64 -8.92499883002202980e-04
 65  1.40156648914341840e-03
 66  1.68671817428389068e-04
 67  2.39053291080708314e-04
 68  3.98196343008232895e-04
 69 -7.49655985022922716e-02
 70 -2.99882140669869082e-03
 71 -3.02946788535106513e-03
 72 -1.10944382631504995e-02
 73 -1.76922585785689389e-04
 74 -1.39117056019411110e-03
 75  1.00218034102227582e-03
 76 -4.15465726845685819e-05
 77  3.15007325415256388e-04
 78  6.02110645972826655e-04
 79  3.51295548891385851e-04
 80  1.75844316088409093e-03
 81 -4.81467857177272972e-04
 82 -1.24702238555522617e-03
 83 -1.21293603303574901e-03
 84 -7.08995287408788807e-03
 85  1.88555772638772379e-02
 86  1.01904436187386874e-02
 87  2.67043369551838751e-03
 88  8.90562193628457836e-03
 89 -1.26491007689035037e-03
 90 -3.95051738910983958e-03
 91 -1.21170564804797746e-03
 92 -9.50348333211078496e-06
 93 -5.71386615003784777e-04
 94  6.06682200357907681e-02
 95  1.16211878388541561e-02
 96  2.26330203853526962e-03
 97 -7.23209959223106765e-03
 98 -6.03697110704449775e-04
 99  4.28761582458354385e-04
100  2.64445717167981860e-03
101 -6.22616395145429879e-01
102 -4.20075145414841422e-01
103 -5.08773054638007025e-04
104  5.08009432501507394e-04
105  8.00621212418633306e-04
106  4.78748443221102479e-02
107  2.76331068050807106e-03
108 -2.77519347455004858e-03
109 -4.12984019494218833e-03
110 -6.72808632820984659e-02
111 -3.40021726614874679e-03
112  2.37183465568817234e-03
113  6.86594219223047707e-03
114 -6.78458713172967813e-05
115  1.50808029752314888e-03
116  6.09939766019936924e-04
117  1.78761102052253586e-03
118 -8.23037663858016398e-04
119 -3.86953184451356014e-02
120 -4.52007196843643919e-03
121 -1.55131493119330609e-03
122  3.77348267896328044e-03
123 -1.15971564662982821e-03
124  3.91780037013335011e-03
125  1.20342454048995590e-02
126 -9.67062845284940220e-04
127  2.85697494395323066e-03
128  1.01695815488858539e-02
129 -8.38090779512926071e-05
130  5.20549916419356992e-04
131 -1.66647616589875682e-03
132  5.92128861075540765e-04
133  1.65290145414495994e-04
134 -1.26429709642344470e-03
135  5.80789439065808755e-03
136 -2.00154132324638617e-03
137 -8.23130942539762427e-04
138  1.49147486804744791e-02
139 -8.09313320493584669e-03
140  3.90056084579014752e-03
141  1.21554014998397552e-03
142  2.14570728670087545e-03
143 -4.59413033768260256e-04
144 -1.60941712671316413e-04
145 -2.80380747929919556e-03
146  2.53524324811614738e-03
147  4.65583772593470765e-02
148  2.81499217681706023e-03
149  6.58876150550274237e-03
150 -6.93012777766109991e-03
151 -7.51720372048858402e-04
152 -5.07001492808583851e-04
153  1.55971053357048723e-03
154 -4.73034826165096023e-04
155 -1.29736681604409568e-03
156 -1.09890931788503721e-03
 Sym= A
 Ene= -1.04111636970376615e+01
 Spin= Alpha
 Occup=  1.00000000000000000e+00
  1 -1.52574977730567628e-03
  2 -1.32638051326012824e-03
  3  2.08259696937221692e-04
  4  1.30461662006892376e-04
  5 -6.14784553052248692e-04
  6  8.84990174383259510e-06
  7 -3.00044758273473487e-04
  8 -3.82421265751957038e-04
  9  2.20045864911286217e-03
 10 -6.77299276682260653e-03
 11  3.47420496868515016e-03
 12  9.77203437506661814e-04
 13 -3.26102271895948844e-03
 14  3.93571447401410844e-04
 15 -1.22371308392677544e-03
 16 -3.83362876908748137e-04
 17 -2.90041544347063447e-05
 18  1.75604142928975697e-04
 19 -2.38101762635879975e-02
 20  4.58090859148533626e-03
 21  8.30406025611688989e-04
 22  2.08354945877547429e-03
 23  1.94136908316817458e-04
 24 -1.11902386852809322e-04
 25 -8.52010879695471140e-04
 26  9.26366039422979990e-05
 27 -3.95046886015298888e-05
 28 -9.74065248238106942e-05
 29  1.64203067539966295e-05
 30 -9.08626562966354982e-05
 31  5.87392552414446817e-04
 32  6.68815846803157013e-04
 33 -1.20078219588841886e-04
 34  1.03483786915066706e-03
 35  2.89479810215014606e-03
 36 -2.04441644002741237e-03
 37 -2.39502142330305661e-04
 38  1.32484946756930609e-03
 39  3.01686988782177078e-04
 40  4.50301022284159880e-04
 41  5.89738016957458059e-05
 42 -7.92653209542684326e-05
 43 -1.33130256676243974e-04
 44  2.78566835870754821e-02
 45 -1.43232090875270129e-03
 46 -1.08585316978401705e-03
 47  4.09680748464464652e-03
 48  5.09599435986437312e-05
 49  4.86758845001225842e-04
 50 -3.75442356880911245e-04
 51  1.31610868738706483e-04
 52  2.60645596196309460e-05
 53 -5.08970818532855944e-05
 54  2.42116304263040311e-05
 55 -2.76295260679839466e-05
 56  6.16208169712262614e-04
 57  3.08650821621250088e-04
 58 -7.60671184425404319e-05
 59  2.64918967792999386e-04
 60 -3.24061627389596622e-03
 61 -1.52234039203549983e-03
 62 -2.54770001639009920e-04
 63 -1.88447447666645102e-03
 64 -8.16339541258679496e-05
 65  2.11744381128831947e-06
 66  2.41611801066075510e-06
 67 -4.03068752913574501e-05
 68  4.08997620099387529e-05
 69 -1.20758361148304953e-02
 70 -3.96952893040659199e-03
 71 -2.83011753969173775e-04
 72 -1.54651196355489774e-03
 73  9.40171992027376432e-05
 74 -3.54575602245442900e-04
 75 -7.02250256251262255e-04
 76  6.47109818804009608e-04
 77  4.57218780302746637e-04
 78 -1.44201839585161269e-05
 79 -1.90927137995840317e-05
 80 -8.37554307858512186e-05
 81  4.61491642404275896e-04
 82  2.94325227784096772e-04
 83  7.22433894775172331e-05
 84  4.23437730091141763e-04
 85  1.30975648187973688e-03
 86  2.91219019359432573e-04
 87  9.07709255751353613e-05
 88 -5.54301976806595995e-04
 89  1.87589857407945989e-04
 90  1.32222083460285296e-04
 91  1.65241577234751831e-05
 92 -1.55747067220169696e-04
 93  1.83865217995362066e-04
 94  1.08480180508035602e-02
 95  1.87220940792440986e-03
 96  2.51387507231050453e-04
 97  3.59833067987948762e-03
 98  6.64561514347211424e-05
 99  4.84335578332297718e-05
100 -4.05806693010563740e-04
101  7.52362598054841968e-05
102 -5.29163319198038026e-05
103 -5.75444330297238387e-04
104  2.10384086775568431e-04
105 -5.23958938237285621e-05
106  2.35909929277431041e-04
107  1.42836865546890524e-03
108 -5.04234733667717938e-04
109  2.51148384346198288e-04
110 -5.85285930940094169e-03
111 -2.87274166873522762e-03
112  1.38568503396898799e-03
113 -3.37076582112541556e-04
114 -5.64099001039475127e-04
115 -1.26825348158078708e-04
116 -5.46000958736479953e-05
117  7.45530411197594636e-04
118 -6.78898649950798521e-04
119 -1.74722492724687199e-02
120  5.19371788886807792e-04
121  2.35455524320096624e-03
122  2.28326798368041258e-03
123  2.16853887376910375e-04
124  2.52838185316873413e-04
125 -5.21691899311784888e-04
126  1.26863188177853679e-04
127  4.99876298064418968e-04
128  4.34342199243291621e-04
129 -5.62888610844133774e-01
130 -4.63490641981025298e-01
131  8.41519656303820526e-04
132 -2.22276633756012036e-04
133 -1.94664475097140711e-04
134 -1.84942434573866256e-02
135  1.19698444813143762e-04
136 -5.54592586464344446e-04
137  1.19602915570041928e-03
138  2.42840513683459727e-02
139 -9.09370017786788592e-04
140  7.69305504163481438e-04
141 -2.37719184366326367e-03
142 -7.62408760582929953e-05
143  4.27767553110140330e-04
144  1.54300281957390768e-04
145 -3.89968862463227765e-04
146  1.17027029554136864e-04
147  1.76048398954254566e-02
148 -1.86249380996983491e-03
149 -1.51593553154072050e-04
150 -1.74753097663751019e-03
151  1.77689692904881041e-04
152 -1.23455705584294578e-03
153 -4.68186989795625879e-03
154  1.19290943126658521e-04
155 -8.77182323225416164e-04
156 -4.08149551936254351e-03
 Sym= A
 Ene= -1.04061446863221736e+01
 Spin= Alpha
 Occup=  1.00000000000000000e+00
  1  8.47113081065688727e-05
  2  2.48435933880858271e-06
  3  2.05120453385328475e-05
  4  1.67668331383850238e-06
  5  4.47771137713420602e-05
  6  2.64421515344792971e-04
  7 -3.60593024342019430e-04
  8 -4.59008996085618027e-07
  9 -4.97030827224367432e-04
 10  1.39712039073579676e-03
 11 -1.30191447499380789e-03
 12 -3.93948055264882870e-04
 13 -1.86009105824967876e-04
 14  1.10761735404454705e-04
 15  2.55388071082818073e-04
 16 -5.78191815824496277e-05
 17  4.68702944308551089e-06
 18 -9.09250294480247591e-06
 19 -5.77627732180783018e-03
 20  8.58639953518010009e-04
 21 -9.78890471565100392e-04
 22  6.86805729324630430e-03
 23  1.30575546952055010e-05
 24  3.06519911874095273e-04
 25  1.21001928475087994e-04
 26  5.86782032936231359e-05
 27 -3.43030621239866733e-05
 28  2.21195339058569157e-04
 29  3.62969223777268499e-05
 30  9.98416388028537080e-05
 31  3.71932639337876371e-04
 32 -1.41585515216706881e-03
 33 -2.02735758213888595e-04
 34 -4.96576165154503772e-04
 35 -1.46897923318054673e-03
 36  7.02477481643502388e-04
 37  3.35371200630097495e-04
 38 -4.37516538824209579e-04
 39 -6.68346743578594098e-04
 40 -1.80969958526329958e-04
 41 -2.75292425175721053e-05
 42  3.59997328014627100e-04
 43  1.52867913016137112e-04
 44  1.92685672958356931e-02
 45  2.41044135142659630e-03
 46  1.25695961041881389e-05
 47  3.64693594500829126e-03
 48  8.42726846099467447e-05
 49  6.25124929772170185e-05
 50 -9.33664027733120336e-04
 51 -7.82920830148475105e-03
 52 -6.92818726007753561e-03
 53  6.15601799584703587e-04
 54 -1.02272937739777298e-05
 55 -7.59515476012627313e-04
 56  1.42088376184216418e-03
 57 -3.47140619706781759e-03
 58  6.32157375562511509e-05
 59  4.42746693591036019e-03
 60 -5.50416344874456653e-04
 61  7.68432575560223929e-04
 62 -4.22422674833111960e-04
 63 -2.59887156632528440e-03
 64  1.83805325665415678e-03
 65 -2.20325282516405227e-03
 66  9.45453828763506162e-05
 67  3.10235223153400991e-04
 68 -2.25217622531648757e-04
 69  8.17685066173514351e-03
 70 -2.91247505509672697e-03
 71  3.47372138304165626e-04
 72  4.42780421206689792e-04
 73  2.85870507011572997e-04
 74 -1.20376873728281797e-04
 75 -1.52836854754940686e-03
 76 -5.62861628498222522e-01
 77 -4.63307213024512332e-01
 78 -8.31560226220464630e-05
 79 -2.34206033041227212e-04
 80 -1.44262321610527308e-03
 81 -1.87965620688388749e-02
 82 -2.82738290978376680e-03
 83  5.89333262733667291e-05
 84  3.91315481146811868e-03
 85  1.35942179617138271e-02
 86  3.31469825070667768e-03
 87  6.60886036840592061e-04
 88 -8.44587509991971555e-04
 89 -1.62056851290078431e-03
 90  1.68787436128361263e-03
 91 -1.88153024121607990e-04
 92 -6.56508727422806652e-04
 93  5.63592695384045272e-06
 94 -1.35124833150804743e-02
 95 -3.77457050983475437e-03
 96 -1.22750326716731368e-03
 97  3.75265773188967989e-03
 98 -2.40512015102972520e-04
 99  8.69570555663696869e-04
100 -1.49442039738705360e-03
101  5.75332896712962876e-05
102  2.17365820947336220e-06
103  2.47890554130360209e-04
104  1.15064430372208270e-04
105  4.11378079272790810e-04
106 -1.38768112413808266e-04
107 -4.69398009007245844e-04
108 -1.92420160535464294e-04
109 -7.32742530206164657e-04
110 -1.91841053749501698e-03
111  1.16426232285716920e-04
112 -7.75796164127541890e-04
113  1.57235559388420603e-03
114  4.94475444313621022e-04
115  5.21035595191589253e-04
116  2.82921808785917142e-04
117  2.34305830768232745e-04
118  2.30674700013744772e-04
119 -1.06482647040364083e-02
120 -1.82022477444225019e-03
121  2.74673988710418676e-03
122 -9.38733429501972263e-04
123  1.67202610033232157e-04
124  4.70640191227442389e-04
125  5.72120142063639353e-04
126  1.58398104416313971e-04
127 -3.05975202260353103e-04
128  6.38177838373567697e-04
129 -6.34320436194555043e-04
130 -5.92302716984510237e-04
131  5.35687450453006678e-05
132  8.76159977731665695e-06
133 -1.67282270623628015e-05
134  4.84876508304577056e-04
135 -3.63120257137237480e-04
136  2.71247337203830647e-05
137 -4.30996962396459148e-05
138 -1.32056770113530924e-03
139  1.00746284282973589e-03
140  1.15685381164891301e-03
141  8.27343892637558294e-04
142 -9.76335141320215888e-05
143 -1.27234499235336470e-04
144 -3.42083412141366524e-05
145  7.86753544131100130e-05
146 -5.25035614263882506e-05
147  1.42546143034893102e-03
148 -5.56097520086764469e-03
149 -5.70188519065691806e-04
150  2.16896313707227615e-03
151 -1.11245208431514476e-04
152  8.75092228684466820e-04
153  3.71455856808161069e-04
154  1.03385722542988833e-04
155 -2.85266781106947734e-04
156 -5.21103174623416179e-04
 Sym= A
 Ene= -1.03768287168747140e+01
 Spin= Alpha
 Occup=  1.00000000000000000e+00
  1 -1.18616548737702240e-04
  2 -1.14309284381953048e-05
  3 -4.39546366246065603e-05
  4 -1.50555869982873110e-05
  5 -1.06661026152287476e-04
  6 -3.45658685126306263e-04
  7  5.48701838750329570e-04
  8  5.53659209441978781e-05
  9  8.63368309824234293e-04
 10 -3.87791287742710348e-03
 11  1.93854570969744021e-03
 12  2.89984974964129091e-04
 13 -3.92542518970902775e-04
 14 -1.76469606246617097e-04
 15 -4.38272970318626359e-04
 16 -3.69624681288196401e-05
 17  9.08884529290477062e-06
 18  3.91416430686940560e-05
 19  3.37880895612729633e-03
 20 -7.73153035111487016e-04
 21  6.65190128508507186e-04
 22 -3.95949520105562738e-03
 23 -3.89647155784836289e-05
 24 -2.78586995588269695e-04
 25  1.55710121311056725e-04
 26  4.52598805300736401e-03
 27  3.80615297705304148e-03
 28 -6.39600932273355345e-04
 29 -9.38262691720192745e-05
 30 -9.52933059156335746e-05
 31  1.94766415202681778e-04
 32  2.06793665588216654e-03
 33  2.52492015466506542e-04
 34  6.53996507978710966e-04
 35  5.00099397991571413e-03
 36 -2.80786080738800381e-03
 37 -6.59224339178960880e-04
 38  2.77101618870594134e-03
 39  8.29993772110385508e-04
 40  2.13650268905835061e-04
 41 -1.02643538355617626e-04
 42 -8.86792173642155846e-04
 43 -4.13280243198490670e-04
 44 -2.03286103641769841e-02
 45  8.67834722002316927e-04
 46 -1.16623285557439834e-04
 47 -2.35500310084868318e-03
 48 -1.72211799664784092e-04
 49  3.63780619494777217e-04
 50  1.70990384251029420e-03
 51  5.62790176216646509e-01
 52  4.63274758747186155e-01
 53  1.25276701276394768e-04
 54 -4.25007369522462669e-05
 55 -4.00699643675170747e-04
 56  1.89683738327449287e-02
 57 -8.74133671742773522e-04
 58  3.91556062023478628e-04
 59  3.96525054955589300e-03
 60 -1.48132653962901352e-02
 61 -2.34130900265205758e-03
 62 -7.31985122965632786e-04
 63 -3.87271011582675413e-03
 64  9.82034722903391130e-04
 65 -1.78802800422051314e-03
 66  1.19184313348715765e-04
 67  1.16131801590786329e-03
 68  1.77926105865279505e-04
 69  2.44107893522585231e-02
 70  3.03414650809013609e-03
 71  1.11439943146541100e-03
 72  5.56532452390211523e-03
 73  3.48644666682190252e-04
 74 -1.06708417678065895e-03
 75  1.08520069374884584e-03
 76 -8.07045995981335584e-03
 77 -6.18883521612408061e-03
 78  4.00362827957146392e-04
 79 -5.38855026416369069e-05
 80 -8.52343618852856853e-04
 81 -1.74437996309225124e-03
 82 -2.27133908945595592e-03
 83  2.56473252195568312e-04
 84  4.57046336014403556e-03
 85  1.82648516576942714e-03
 86  2.66557990486295665e-03
 87  1.04021280044711432e-04
 88 -1.12758446159322593e-03
 89 -1.46433976720758007e-03
 90  2.19669720339479803e-03
 91 -5.90051776543169048e-05
 92 -5.49027316670042077e-04
 93  1.37658876727859774e-04
 94 -1.76128232725135600e-02
 95 -2.23675079143397133e-03
 96 -4.11891588139517506e-05
 97  2.73804218435601600e-06
 98 -2.60120435409207844e-04
 99  1.49837828853554525e-04
100  1.67691591740450172e-03
101 -1.28962615607948159e-05
102  8.03762566232516651e-05
103 -8.04236646476210105e-05
104 -1.15081356069384496e-05
105 -1.03455710947193631e-04
106 -3.28582244769746741e-04
107  3.86059808540899067e-04
108  1.29406547590828409e-04
109  6.92041247120981241e-04
110 -2.04830826078727674e-03
111 -6.35122522977445972e-04
112  1.00808108744982958e-03
113  6.41355944296749791e-05
114 -2.16999270137576805e-04
115 -4.07120382382717902e-04
116 -1.72187097944586384e-04
117  4.91690866957171638e-05
118 -2.82204571300193517e-05
119  1.37980011804858492e-02
120  9.98030734238153578e-04
121 -1.92655193141906414e-03
122 -1.34817743236761685e-03
123  3.66263274153841772e-05
124 -2.35951171740718982e-04
125 -8.27460383934806930e-04
126 -1.48641180562249670e-04
127  3.34326177693966878e-04
128 -2.38461017247338654e-04
129  1.07840059415349699e-04
130  1.67567942049417725e-04
131  4.42139072078877819e-06
132  1.55796238379469183e-05
133 -7.83252045442106500e-06
134 -6.12963659998743923e-04
135  7.98916643404849248e-05
136 -1.10842070806054860e-04
137  1.60282453613312095e-04
138  3.69037884159971593e-03
139 -6.44234575225700011e-04
140 -3.60679934007185430e-05
141 -1.04433410439694493e-03
142  3.35865774701371518e-05
143  9.85252133073652838e-05
144  1.80346845867891129e-05
145 -5.40500398578117812e-06
146  3.47549723697853505e-05
147 -2.92492720864585571e-03
148  3.66387303559715998e-03
149  3.11028804091839802e-04
150 -5.74061283648775100e-04
151  8.38327894326061109e-05
152 -7.17247014941516190e-04
153  4.88891210535063225e-05
154 -3.10172895570248126e-05
155 -1.59613864155323408e-04
156  1.28477400154628098e-04
 Sym= A
 Ene= -1.03634121672029949e+01
 Spin= Alpha
 Occup=  1.00000000000000000e+00
  1  5.61891817271728211e-01
  2  4.62590243668858259e-01
  3  2.51080448139313244e-04
  4 -4.80585313577946033e-05
  5  6.87523215786161939e-04
  6  1.89014687522859534e-02
  7 -2.97299085222679782e-03
  8 -8.96994600649359458e-05
  9 -3.08079526084098151e-03
 10 -1.36504360879571556e-02
 11  3.52359850274542707e-03
 12  7.60894097069873647e-04
 13  4.98965336207276840e-04
 14  1.59642813618534989e-03
 15  1.42771949665893754e-03
 16 -2.33582434962733448e-04
 17  6.44745467797080323e-04
 18  2.83655949210280838e-05
 19  1.30323167855343619e-02
 20 -3.68574727284253986e-03
 21 -1.33484810623369114e-03
 22 -3.40115334836192966e-03
 23  2.57278765852785648e-04
 24 -8.93522129862755424e-04
 25  1.38768917425861026e-03
 26  3.25483266709244157e-02
 27  2.72611700906133618e-02
 28  5.86579175573025244e-04
 29 -1.05801951463286030e-05
 30  7.40411636226613232e-04
 31 -5.10661298132846137e-04
 32 -3.31283731356955477e-03
 33  5.20365286528136920e-05
 34 -4.13890038195733993e-03
 35  9.97859298349826861e-05
 36  6.40012865935762464e-04
 37 -4.51184397326733833e-04
 38  2.52959532664386987e-03
 39 -1.77443278143340111e-03
 40 -2.06383362753605453e-03
 41  9.17228429742450956e-05
 42 -2.48666221702931981e-04
 43  2.27764163534765736e-04
 44 -7.56781736611312431e-03
 45 -2.76760013570464657e-03
 46  3.86349569640645225e-04
 47 -2.04946905712347338e-04
 48 -2.66606274673962898e-04
 49  1.06003492770982976e-04
 50  1.62417827147467151e-03
 51 -1.66523973763925415e-04
 52 -5.27763729460543532e-05
 53  2.44943311471673231e-04
 54  3.94921175767052357e-05
 55 -1.03850137023907022e-04
 56 -3.65957401423260768e-04
 57 -1.48109710542389922e-03
 58 -2.09658626893329528e-04
 59  5.16771551013589969e-04
 60  1.49483809518166318e-03
 61  7.13430548051005977e-04
 62  3.41591734712359991e-04
 63  5.30851408884615663e-04
 64  6.95587042950325920e-04
 65 -1.78201300084772471e-04
 66 -2.38640663736622873e-05
 67 -3.92811875647620619e-04
 68 -1.69429368048843728e-04
 69 -1.94357066518403704e-02
 70  2.62157910062027835e-03
 71  4.34103126167533317e-05
 72 -3.72861287794456564e-03
 73 -9.17574280021899461e-05
 74 -4.68747863357561783e-05
 75  9.78236573749189818e-04
 76  7.38923331440374657e-05
 77  1.30898969448965772e-04
 78  2.13881654404865082e-05
 79  3.15273838550553056e-06
 80 -4.66425405185908758e-05
 81 -2.74544290031803579e-04
 82 -3.79384601564219145e-04
 83 -5.67891631329847255e-06
 84  5.11883395575943290e-04
 85 -1.52921257057845824e-03
 86 -1.35309633052585086e-03
 87 -4.03872454014015021e-04
 88  2.06442379514751859e-04
 89 -1.12171987963943234e-04