[Molden Format]
[Atoms] (AU)
C    1    6         2.688203947216       0.126267316038      -0.211284584910
H    2    1         4.728095907479       0.359456870713      -0.218011119477
C    3    6         1.369782617967       0.204435981782      -2.374855666231
H    4    1         2.318345438850       0.530982748944      -4.165937681460
C    5    6        -1.369782617967      -0.204435981782      -2.374855666231
H    6    1        -2.318345438850      -0.530982748944      -4.165937681460
C    7    6        -2.688203947216      -0.126267316038      -0.211284584910
H    8    1        -4.728095907290      -0.359456870902      -0.218011119477
C    9    6        -1.377448045575       0.458746757807       2.255586404767
H   10    1        -1.428727068278       2.518961490447       2.552818698465
H   11    1        -2.401900037590      -0.368832778254       3.849461186775
C   12    6         1.377448045575      -0.458746757807       2.255586404767
H   13    1         1.428727068278      -2.518961490069       2.552818698465
H   14    1         2.401900037401       0.368832778065       3.849461186397
[GTO]
  1 0
 s    6  1.00
     4563.2400000000         0.0019666500
      682.0240000000         0.0152306000
      154.9730000000         0.0761269000
       44.4553000000         0.2608010000
       13.0290000000         0.6164620000
        1.8277300000         0.2210060000
 s    3  1.00
       20.9642000000         0.1146600000
        4.8033100000         0.9199990000
        1.4593300000        -0.0030306800
 p    3  1.00
       20.9642000000         0.0402487000
        4.8033100000         0.2375940000
        1.4593300000         0.8158540000
 s    1  1.00
        0.4834560000         1.0000000000
 p    1  1.00
        0.4834560000         1.0000000000
 s    1  1.00
        0.1455850000         1.0000000000
 p    1  1.00
        0.1455850000         1.0000000000
 d    1  1.00
        0.6260000000         1.0000000000
 s    1  1.00
        0.0438000000         1.0000000000
 p    1  1.00
        0.0438000000         1.0000000000

  2 0
 s    3  1.00
       33.8650000000         0.0254938000
        5.0947900000         0.1903730000
        1.1587900000         0.8521610000
 s    1  1.00
        0.3258400000         1.0000000000
 s    1  1.00
        0.1027410000         1.0000000000

  3 0
 s    6  1.00
     4563.2400000000         0.0019666500
      682.0240000000         0.0152306000
      154.9730000000         0.0761269000
       44.4553000000         0.2608010000
       13.0290000000         0.6164620000
        1.8277300000         0.2210060000
 s    3  1.00
       20.9642000000         0.1146600000
        4.8033100000         0.9199990000
        1.4593300000        -0.0030306800
 p    3  1.00
       20.9642000000         0.0402487000
        4.8033100000         0.2375940000
        1.4593300000         0.8158540000
 s    1  1.00
        0.4834560000         1.0000000000
 p    1  1.00
        0.4834560000         1.0000000000
 s    1  1.00
        0.1455850000         1.0000000000
 p    1  1.00
        0.1455850000         1.0000000000
 d    1  1.00
        0.6260000000         1.0000000000
 s    1  1.00
        0.0438000000         1.0000000000
 p    1  1.00
        0.0438000000         1.0000000000

  4 0
 s    3  1.00
       33.8650000000         0.0254938000
        5.0947900000         0.1903730000
        1.1587900000         0.8521610000
 s    1  1.00
        0.3258400000         1.0000000000
 s    1  1.00
        0.1027410000         1.0000000000

  5 0
 s    6  1.00
     4563.2400000000         0.0019666500
      682.0240000000         0.0152306000
      154.9730000000         0.0761269000
       44.4553000000         0.2608010000
       13.0290000000         0.6164620000
        1.8277300000         0.2210060000
 s    3  1.00
       20.9642000000         0.1146600000
        4.8033100000         0.9199990000
        1.4593300000        -0.0030306800
 p    3  1.00
       20.9642000000         0.0402487000
        4.8033100000         0.2375940000
        1.4593300000         0.8158540000
 s    1  1.00
        0.4834560000         1.0000000000
 p    1  1.00
        0.4834560000         1.0000000000
 s    1  1.00
        0.1455850000         1.0000000000
 p    1  1.00
        0.1455850000         1.0000000000
 d    1  1.00
        0.6260000000         1.0000000000
 s    1  1.00
        0.0438000000         1.0000000000
 p    1  1.00
        0.0438000000         1.0000000000

  6 0
 s    3  1.00
       33.8650000000         0.0254938000
        5.0947900000         0.1903730000
        1.1587900000         0.8521610000
 s    1  1.00
        0.3258400000         1.0000000000
 s    1  1.00
        0.1027410000         1.0000000000

  7 0
 s    6  1.00
     4563.2400000000         0.0019666500
      682.0240000000         0.0152306000
      154.9730000000         0.0761269000
       44.4553000000         0.2608010000
       13.0290000000         0.6164620000
        1.8277300000         0.2210060000
 s    3  1.00
       20.9642000000         0.1146600000
        4.8033100000         0.9199990000
        1.4593300000        -0.0030306800
 p    3  1.00
       20.9642000000         0.0402487000
        4.8033100000         0.2375940000
        1.4593300000         0.8158540000
 s    1  1.00
        0.4834560000         1.0000000000
 p    1  1.00
        0.4834560000         1.0000000000
 s    1  1.00
        0.1455850000         1.0000000000
 p    1  1.00
        0.1455850000         1.0000000000
 d    1  1.00
        0.6260000000         1.0000000000
 s    1  1.00
        0.0438000000         1.0000000000
 p    1  1.00
        0.0438000000         1.0000000000

  8 0
 s    3  1.00
       33.8650000000         0.0254938000
        5.0947900000         0.1903730000
        1.1587900000         0.8521610000
 s    1  1.00
        0.3258400000         1.0000000000
 s    1  1.00
        0.1027410000         1.0000000000

  9 0
 s    6  1.00
     4563.2400000000         0.0019666500
      682.0240000000         0.0152306000
      154.9730000000         0.0761269000
       44.4553000000         0.2608010000
       13.0290000000         0.6164620000
        1.8277300000         0.2210060000
 s    3  1.00
       20.9642000000         0.1146600000
        4.8033100000         0.9199990000
        1.4593300000        -0.0030306800
 p    3  1.00
       20.9642000000         0.0402487000
        4.8033100000         0.2375940000
        1.4593300000         0.8158540000
 s    1  1.00
        0.4834560000         1.0000000000
 p    1  1.00
        0.4834560000         1.0000000000
 s    1  1.00
        0.1455850000         1.0000000000
 p    1  1.00
        0.1455850000         1.0000000000
 d    1  1.00
        0.6260000000         1.0000000000
 s    1  1.00
        0.0438000000         1.0000000000
 p    1  1.00
        0.0438000000         1.0000000000

  10 0
 s    3  1.00
       33.8650000000         0.0254938000
        5.0947900000         0.1903730000
        1.1587900000         0.8521610000
 s    1  1.00
        0.3258400000         1.0000000000
 s    1  1.00
        0.1027410000         1.0000000000

  11 0
 s    3  1.00
       33.8650000000         0.0254938000
        5.0947900000         0.1903730000
        1.1587900000         0.8521610000
 s    1  1.00
        0.3258400000         1.0000000000
 s    1  1.00
        0.1027410000         1.0000000000

  12 0
 s    6  1.00
     4563.2400000000         0.0019666500
      682.0240000000         0.0152306000
      154.9730000000         0.0761269000
       44.4553000000         0.2608010000
       13.0290000000         0.6164620000
        1.8277300000         0.2210060000
 s    3  1.00
       20.9642000000         0.1146600000
        4.8033100000         0.9199990000
        1.4593300000        -0.0030306800
 p    3  1.00
       20.9642000000         0.0402487000
        4.8033100000         0.2375940000
        1.4593300000         0.8158540000
 s    1  1.00
        0.4834560000         1.0000000000
 p    1  1.00
        0.4834560000         1.0000000000
 s    1  1.00
        0.1455850000         1.0000000000
 p    1  1.00
        0.1455850000         1.0000000000
 d    1  1.00
        0.6260000000         1.0000000000
 s    1  1.00
        0.0438000000         1.0000000000
 p    1  1.00
        0.0438000000         1.0000000000

  13 0
 s    3  1.00
       33.8650000000         0.0254938000
        5.0947900000         0.1903730000
        1.1587900000         0.8521610000
 s    1  1.00
        0.3258400000         1.0000000000
 s    1  1.00
        0.1027410000         1.0000000000

  14 0
 s    3  1.00
       33.8650000000         0.0254938000
        5.0947900000         0.1903730000
        1.1587900000         0.8521610000
 s    1  1.00
        0.3258400000         1.0000000000
 s    1  1.00
        0.1027410000         1.0000000000

[5D]
[9G]

[MO]
 Sym= A
 Ene= -1.25858096168038003e+01
 Spin= Alpha
 Occup=  1.00000000000000000e+00
  1 -3.27090065278963686e-05
  2  1.94478535683100272e-04
  3 -7.97188200618522173e-05
  4 -3.62141268908702774e-05
  5  2.75732427184645129e-04
  6 -1.07165087434210344e-03
  7  9.35873323666480380e-04
  8  1.24798581740598015e-04
  9 -1.29410534686708436e-03
 10 -5.83557579311264930e-03
 11  1.44450321296655886e-03
 12  4.53167268203040811e-04
 13  1.31041071938570891e-03
 14 -5.66207341804489655e-04
 15  4.02368788869301541e-04
 16  3.00406250617076716e-05
 17  4.32058097649731159e-04
 18 -4.98582236366478275e-04
 19 -3.25804359818118242e-02
 20  5.39006840904352694e-03
 21  1.11565683905553601e-04
 22 -1.29112189041630746e-02
 23 -2.19024570991599091e-04
 24 -9.44277951652727337e-05
 25  1.40382776882094122e-03
 26 -3.77249842017292770e-05
 27  2.29503779308410895e-04
 28 -1.60636986079036592e-04
 29  7.24751182603041371e-05
 30  9.66857462527158178e-05
 31 -1.76294707513443877e-03
 32  9.25178748656761934e-04
 33 -2.17761019612037571e-04
 34 -7.81626287766455847e-04
 35  1.06983468650370846e-02
 36 -4.75530483200825062e-03
 37 -7.87119798975371510e-04
 38  5.95804495730268852e-03
 39  2.35991553732633704e-04
 40  1.34135573114619045e-05
 41 -1.45003134219508768e-05
 42  7.17551230030199263e-05
 43 -1.15298374665222342e-04
 44  2.78612226517787991e-02
 45 -1.15617295161028581e-02
 46  2.38284783275794489e-05
 47  3.63291208524184860e-03
 48 -2.80948279176746005e-04
 49  1.02313942881681165e-03
 50  2.38207693337589383e-03
 51 -6.05413698423322986e-05
 52  3.15921763061337193e-04
 53 -3.12887557978825444e-04
 54  5.98443579710895908e-05
 55  3.17185305119629859e-04
 56 -1.61136447031214481e-03
 57  2.09808985052693537e-03
 58 -3.76220918331951525e-04
 59 -3.23787588410076729e-03
 60 -9.53876052972030611e-03
 61 -7.10933757018509561e-03
 62 -7.13786367292590547e-04
 63 -4.96693268866979249e-03
 64 -1.01933080466583932e-03
 65  1.36140770359295627e-03
 66  1.20032127533881722e-04
 67  2.86584258055463763e-04
 68  3.66485788477457532e-04
 69 -7.33488735410920273e-02
 70 -3.42962444554371351e-03
 71 -3.25472578027692595e-03
 72 -1.07602386562786652e-02
 73 -1.14205001014647739e-04
 74 -1.74591954400766733e-03
 75  4.68466097353510626e-04
 76 -3.86407367197499121e-05
 77  3.13752136204350574e-04
 78  5.67839461853560925e-04
 79  3.21372329786799918e-04
 80  1.84396116573487968e-03
 81 -5.52837127416230269e-04
 82 -1.11195052345789270e-03
 83 -1.10637245137566536e-03
 84 -7.32474403988817024e-03
 85  1.98851923491842504e-02
 86  1.14928828102414931e-02
 87  2.61570753833072775e-03
 88  1.02288459076929402e-02
 89 -1.48002223166909526e-03
 90 -3.90093137158559547e-03
 91 -1.09607509970098527e-03
 92  6.02836076921104848e-05
 93 -4.70099689718151000e-04
 94  5.32931403553032895e-02
 95  1.09252846079730907e-02
 96  2.35151831512022888e-03
 97 -7.78375159067327786e-03
 98 -5.81040658133489228e-04
 99  6.84301752884446308e-04
100  3.52868257804145628e-03
101 -6.22762882224095926e-01
102 -4.19810415095800860e-01
103 -2.33126795618484456e-04
104  3.95890030045817430e-04
105  8.74097519407079633e-04
106  4.73576679888105256e-02
107  1.35328381582640973e-03
108 -2.00819489498891331e-03
109 -4.12884986250488303e-03
110 -6.80308587846926022e-02
111 -3.26372428153357853e-03
112  2.59057297835660295e-03
113  7.89959733376384594e-03
114  4.22720170976979663e-04
115  1.51005984214199200e-03
116  5.06684671444270060e-04
117  1.27274582021359066e-03
118 -3.04398881658558980e-04
119 -2.90337382298166795e-02
120 -4.08321008468245407e-03
121 -2.64323352503506321e-03
122  2.00517395967580439e-03
123 -9.91080002520749320e-04
124  3.65502139209881354e-03
125  1.07296847526436971e-02
126 -8.69777588986451696e-04
127  2.80730733679356980e-03
128  9.57026132543010478e-03
129 -4.95382324973915570e-05
130  3.75527742527184281e-04
131 -1.43596356177606984e-03
132  4.69105752602473548e-04
133  1.71545525121615596e-04
134 -1.23693683338398672e-03
135  4.08023070097014978e-03
136 -1.30830684034361454e-03
137 -7.95289212622965480e-04
138  1.73737015588931211e-02
139 -7.95749189347902224e-03
140  3.68789128722902572e-03
141  3.32761862114248094e-04
142  1.65556315999887903e-03
143 -3.91151020314502043e-04
144 -1.92164391684125819e-04
145 -2.26714923937852090e-03
146  1.74294288987861105e-03
147  4.73266099982211155e-02
148  3.60961277971881458e-03
149  6.73993294261247475e-03
150 -7.82673301314992624e-03
151 -5.60000163976735461e-04
152 -9.67357952945653229e-04
153  1.17948955795162146e-03
154 -3.04988141589872112e-04
155 -1.54441304859128064e-03
156 -1.55366972410586677e-03
 Sym= A
 Ene= -1.04239462684178132e+01
 Spin= Alpha
 Occup=  1.00000000000000000e+00
  1 -1.12421649708287674e-03
  2 -9.95150019944978812e-04
  3  1.90821833461941371e-04
  4  1.16218597061120329e-04
  5 -6.26080856925429808e-04
  6  4.99974753953286150e-05
  7 -2.62671902466850456e-04
  8 -3.45382368851240927e-04
  9  2.22867280983730194e-03
 10 -6.87656745618979003e-03
 11  3.79421169793596599e-03
 12  9.24725957462814050e-04
 13 -3.60610681125580991e-03
 14  4.53104195056562337e-04
 15 -1.18183600600837622e-03
 16 -3.41190316860551040e-04
 17 -4.86153600836175605e-05
 18  1.42292214486983186e-04
 19 -2.02144864780698860e-02
 20  4.14749437445624536e-03
 21  8.07831573135622144e-04
 22  2.23645240281963604e-03
 23  1.83460909015485533e-04
 24 -1.94069455124572498e-04
 25 -1.13323116925054127e-03
 26  7.62504333726975203e-05
 27 -4.67434084309028777e-05
 28 -9.82748254393896387e-05
 29  2.03933926157071025e-05
 30 -1.06025901969397529e-04
 31  5.03172933372718172e-04
 32  6.65288727490813349e-04
 33 -1.26667386962210144e-04
 34  1.04766663471915207e-03
 35  3.13120344592699058e-03
 36 -2.42975303318961229e-03
 37 -2.44096615653956135e-04
 38  1.62820436781825140e-03
 39  3.34460194454614919e-04
 40  4.25244564541337584e-04
 41  4.07497934916351630e-05
 42 -9.29254287584120841e-05
 43 -1.19277035202640516e-04
 44  2.63087797077243730e-02
 45 -1.53422743534621696e-03
 46 -1.11529266249363389e-03
 47  3.81743616194529269e-03
 48  2.95157255181034276e-05
 49  5.87283685134478524e-04
 50 -1.83710202997245005e-04
 51  8.52093122182350881e-05
 52 -6.86486589507389491e-06
 53 -5.45214182713971545e-05
 54  2.36765602877811923e-05
 55 -2.84960337133783681e-05
 56  5.65046847220483802e-04
 57  3.19239832248303067e-04
 58 -7.63804532857405099e-05
 59  2.27262766545079277e-04
 60 -3.63554739955782242e-03
 61 -1.65164790165761512e-03
 62 -2.62480982906570582e-04
 63 -2.00059682790235506e-03
 64 -8.72843081382843516e-05
 65  1.26669630860298191e-05
 66 -3.08511043048021924e-07
 67 -2.17668424561615651e-05
 68  3.91116549836759511e-05
 69 -1.11156680950724573e-02
 70 -4.10102860167172421e-03
 71 -5.54536987842687903e-05
 72 -1.38630278106039958e-03
 73  9.07605407380022452e-05
 74 -3.52432476045811023e-04
 75 -7.63478373966898732e-04
 76  1.55281193457475685e-04
 77  6.45199813555880433e-05
 78 -3.03855685383138275e-05
 79 -5.99802688958675965e-06
 80 -7.70752371748205579e-05
 81  3.33981128400177494e-04
 82  3.19643242205113376e-04
 83  1.68635279454229892e-05
 84  3.54417876045616791e-04
 85  2.13223807855313433e-03
 86  5.79931805352901339e-04
 87  1.86183987994093469e-04
 88 -3.43811736943906796e-04
 89  1.58127400409200383e-04
 90  9.87153646965612186e-05
 91 -6.81957484622106874e-07
 92 -1.25826856591135071e-04
 93  1.52873876755552746e-04
 94  1.12724170662740694e-02
 95  1.92357029988373470e-03
 96  4.39546073971679960e-05
 97  4.12019318043402652e-03
 98  6.27657114301444907e-05
 99  3.33836506378419793e-05
100 -4.29244234578604492e-04
101  5.17674309596004517e-05
102 -2.80524183947926125e-05
103 -4.55918539171513678e-04
104  1.53836546785342666e-04
105 -5.14578019007102619e-05
106  2.89305026282970330e-04
107  8.59620347224365863e-04
108 -2.93492866682723758e-04
109  2.29139444311572427e-04
110 -6.43864857362389399e-03
111 -2.72908553917970524e-03
112  1.26059053365193776e-03
113 -6.81420395143589962e-06
114 -3.92446663152164871e-04
115 -1.00012295956472888e-04
116 -6.43398179082978070e-05
117  5.46899915092511095e-04
118 -4.20733756200877915e-04
119 -1.70356485160762898e-02
120  8.10498049381065200e-04
121  2.31842204231116423e-03
122  2.52316706174011540e-03
123  1.48397475548235538e-04
124  3.95626142476738466e-04
125 -3.78390120214513082e-04
126  6.92188434912650754e-05
127  5.57346681182670721e-04
128  5.62194009036168533e-04
129 -5.62995611886511371e-01
130 -4.63572705671183638e-01
131  9.23269312378485166e-04
132 -2.22890679016962858e-04
133 -1.74502207352377609e-04
134 -1.78004112424239996e-02
135 -3.48120186762073465e-04
136 -3.40689756525600009e-04
137  1.17606997713842602e-03
138  2.36604740379423757e-02
139 -8.08210638395682308e-04
140  8.21937680093880532e-04
141 -2.65402767678318873e-03
142 -2.38890909921812822e-04
143  4.33155332477642107e-04
144  1.25817132443708417e-04
145 -2.09509856640933322e-04
146 -3.94030294128406615e-05
147  1.32769511048934051e-02
148 -1.65695404445834237e-03
149 -5.76116013854838281e-04
150 -1.04021429168248895e-03
151  1.43035947107139502e-04
152 -1.13831695496969870e-03
153 -4.03006924127852998e-03
154  1.08786409333736135e-04
155 -8.59444871805522311e-04
156 -3.69957538021560388e-03
 Sym= A
 Ene= -1.04053933040412883e+01
 Spin= Alpha
 Occup=  1.00000000000000000e+00
  1  9.73524786861009291e-05
  2  7.05922231060707692e-06
  3  2.25101427618024674e-05
  4  2.65489320694804026e-07
  5  4.33710885132948130e-05
  6  3.49127037002180528e-04
  7 -3.58781474321958249e-04
  8  6.48568489386958070e-06
  9 -4.67673147563728590e-04
 10  5.37831016638088918e-04
 11 -6.01285640969527902e-04
 12 -2.89516448006373343e-04
 13  5.80784205242758987e-05
 14  1.04054308386488468e-04
 15  2.44337612789585312e-04
 16 -5.00632768262289506e-05
 17 -1.42322369715089866e-05
 18 -1.38526269902072681e-05
 19 -7.52867258442363897e-03
 20  1.22194556902920841e-03
 21 -6.71190355723195369e-04
 22  6.21717599732357282e-03
 23  3.31285446007133742e-05
 24  1.81981740067617545e-04
 25 -6.01385231530214315e-05
 26  6.43453249045897722e-05
 27 -3.24298833137286432e-05
 28  2.21684832387335586e-04
 29  3.07553966219049080e-05
 30  8.40063847244124789e-05
 31  3.75671223916857985e-04
 32 -1.39000186928321776e-03
 33 -1.69084764563685050e-04
 34 -4.11097936768880427e-04
 35 -6.46108436540972046e-04
 36  7.11205755576103981e-04
 37  2.50454703057541490e-04
 38 -1.05239508850501367e-04
 39 -6.44413863845532038e-04
 40 -1.83917636279291592e-04
 41 -2.50575274451700026e-05
 42  3.61477174734423079e-04
 43  1.25047598314262484e-04
 44  1.79714020927043243e-02
 45  2.33344696664381781e-03
 46 -6.53815126538992067e-05
 47  3.61063026846638550e-03
 48  8.73699897694569692e-05
 49  7.16947480354748930e-05
 50 -8.71543423301445993e-04
 51 -7.17361141621103600e-03
 52 -6.37893118246939030e-03
 53  6.17079421506943802e-04
 54 -1.07203458460791706e-05
 55 -7.61951809207378917e-04
 56  1.39289998833970756e-03
 57 -3.40795159034479279e-03
 58  6.81047339009883994e-05
 59  4.34639227103096343e-03
 60 -4.90382392565977591e-04
 61  6.11385181604199440e-04
 62 -3.74476226131303241e-04
 63 -2.65265184962503939e-03
 64  1.79413639854253512e-03
 65 -2.17938524210419286e-03
 66  9.18358519823606691e-05
 67  2.94059247757008483e-04
 68 -1.96159773044197100e-04
 69  7.60906070305786102e-03
 70 -2.14290641492698901e-03
 71  4.61351685405758498e-04
 72  2.88903842096614033e-04
 73  2.86588598643238985e-04
 74 -1.52035301410252866e-04
 75 -1.55697782489802204e-03
 76 -5.62893809153482527e-01
 77 -4.63343244226233852e-01
 78 -8.46313597387504766e-05
 79 -2.10761269380463177e-04
 80 -1.48651471063354938e-03
 81 -1.84990420373609653e-02
 82 -2.65369419628583422e-03
 83  8.13036668071136389e-05
 84  3.90691760220167328e-03
 85  1.34060708340740849e-02
 86  2.89794889711926388e-03
 87  5.34973428821066007e-04
 88 -6.72882131578006384e-04
 89 -1.59631538860903152e-03
 90  1.66289836083467714e-03
 91 -1.76733082075024284e-04
 92 -6.20315679551220822e-04
 93  2.98206563071477062e-05
 94 -1.56504030910460772e-02
 95 -4.38325323674348087e-03
 96 -1.36688695368432389e-03
 97  2.32260857326373020e-03
 98 -2.54289523721276949e-04
 99  8.04585009413599913e-04
100 -1.74212158441068598e-03
101  5.38994898129340142e-05
102 -5.26581371850000783e-07
103  2.28384634200846286e-04
104  9.74739327299535015e-05
105  3.88912668268288084e-04
106 -1.06901598841799498e-04
107 -4.10565762416761340e-04
108 -1.56398152651063559e-04
109 -6.42156066060226797e-04
110 -2.19604757781407135e-03
111  1.29503079249272858e-04
112 -4.13717946367093980e-04
113  1.44949463288481569e-03
114  4.59482306605071291e-04
115  5.04691112104349603e-04
116  2.28873786388944430e-04
117  2.24976918390390452e-04
118  1.94625354436206460e-04
119 -4.19432906583517770e-03
120 -1.63092524684286416e-03
121  1.99492885481126992e-03
122 -1.77269396680452000e-03
123  1.48021694670405154e-04
124  3.84835841362236213e-04
125  1.85920132542604911e-04
126  1.30603753256232938e-04
127 -1.47079841210049608e-04
128  4.33230768306539697e-04
129 -1.45059605808972358e-04
130 -1.78002169645897476e-04
131  5.25166070998580868e-05
132  1.03718405902264327e-05
133 -8.51052278197915106e-06
134  3.79021562102751011e-04
135 -3.04530977314110024e-04
136  2.26239801049970361e-06
137 -6.41215161143731543e-05
138 -6.37669139542525751e-04
139  5.55952308476224564e-04
140  9.01619540088015856e-04
141  4.64964513005048383e-04
142 -8.15293102725250779e-05
143 -9.62582352725868933e-05
144 -3.40124908739921012e-05
145  6.60492575398172757e-05
146 -3.49281598708714054e-05
147  1.24840004723467146e-03
148 -4.59444330066811121e-03
149 -5.49160900874919511e-04
150  1.60290528140225670e-03
151 -1.03682511540672696e-04
152  6.73020736219057049e-04
153  9.70352959604575118e-05
154  7.78219900825466275e-05
155 -1.97726846853956681e-04
156 -4.32998270566510037e-04
 Sym= A
 Ene= -1.03750309468000381e+01
 Spin= Alpha
 Occup=  1.00000000000000000e+00
  1 -1.77246356341574727e-04
  2 -5.69854287780305211e-05
  3 -5.01182740433070461e-05
  4 -1.21375680147484560e-05
  5 -1.02618206681013991e-04
  6 -3.87945026898455143e-04
  7  5.56163995161901379e-04
  8  4.23393820665228106e-05
  9  8.20244769909338027e-04
 10 -3.32353709687841815e-03
 11  1.52360493283551675e-03
 12  1.76953512624180041e-04
 13 -4.36660284570590518e-04
 14 -1.64024960835777207e-04
 15 -4.30265251887893344e-04
 16 -3.72164462439293791e-05
 17  1.93233217751494920e-05
 18  3.93575945571253104e-05
 19  5.17890235941424575e-03
 20 -1.13515664378873522e-03
 21  4.41559463629515752e-04
 22 -3.00761581367918213e-03
 23 -5.73979987650320158e-05
 24 -2.08444831291685619e-04
 25  2.71851379753685674e-04
 26  4.45191494121987153e-03
 27  3.75126758596965428e-03
 28 -6.39950178953202433e-04
 29 -7.70413030318433620e-05
 30 -8.74052348087641691e-05
 31  1.59647652689864000e-04
 32  2.05597797164652806e-03
 33  2.07085439521098933e-04
 34  5.95401518467486893e-04
 35  4.52676574190817235e-03
 36 -2.74488884807730328e-03
 37 -5.11315573466469223e-04
 38  2.63724431369453689e-03
 39  8.24560335588140074e-04
 40  1.96849812646687680e-04
 41 -9.25926953133253188e-05
 42 -9.14597849204250280e-04
 43 -3.51025730354913410e-04
 44 -1.92356086626321206e-02
 45  1.18295049591418222e-03
 46 -8.78526275075815666e-05
 47 -2.27092719096703066e-03
 48 -1.76892900938448058e-04
 49  3.60718270739067448e-04
 50  1.65786252725907469e-03
 51  5.62808664871092490e-01
 52  4.63307027517733172e-01
 53  1.05652322653332245e-04
 54 -4.66344862716783204e-05
 55 -4.03052321441795642e-04
 56  1.87698322160427707e-02
 57 -7.64183968309409744e-04
 58  3.53220452001806382e-04
 59  3.77168169403113663e-03
 60 -1.48605543383469804e-02
 61 -2.18054344307112759e-03
 62 -6.24191810558360409e-04
 63 -3.83986354480830199e-03
 64  9.24886567201505362e-04
 65 -1.72009362407764981e-03
 66  1.08099654856923661e-04
 67  1.15796303238034702e-03
 68  1.38645941781715966e-04
 69  2.61733183976575190e-02
 70  2.48654219408144016e-03
 71  9.26286350973332660e-04
 72  5.90264935127112964e-03
 73  3.37239002844352440e-04
 74 -1.02746052840183141e-03
 75  1.13091153838167286e-03
 76 -7.40497805232916226e-03
 77 -5.65049836958311531e-03
 78  4.04591771963351847e-04
 79 -4.91289059206647796e-05
 80 -8.33410539542326647e-04
 81 -1.69979055665314530e-03
 82 -2.21777616424655068e-03
 83  2.31703964544964204e-04
 84  4.35616278524559534e-03
 85  2.17548971844332964e-03
 86  2.88263376189077693e-03
 87  9.93664955223887028e-05
 88 -1.13338623551047864e-03
 89 -1.42413674203760161e-03
 90  2.12523804032621784e-03
 91 -5.95303649396227590e-05
 92 -5.18880976713383124e-04
 93  1.25267501271635669e-04
 94 -1.60539212920675044e-02
 95 -1.94642340919117082e-03
 96  1.97251193349715618e-04
 97  1.54293951470860051e-03
 98 -2.85380399231172056e-04
 99  2.03058701132962499e-04
100  1.69159762448156475e-03
101 -1.20634490720542869e-05
102  7.69036399803118062e-05
103 -7.19879451697839651e-05
104 -8.78279314645220582e-06
105 -1.14325051194786543e-04
106 -2.88923795203400915e-04
107  3.37164035501714781e-04
108  1.03474147737481895e-04
109  7.00716580744707306e-04
110 -1.88425232423294810e-03
111 -6.71075581537352380e-04
112  7.25516326279913837e-04
113  2.02597133101722540e-04
114 -2.56842426810697480e-04
115 -3.53269338926948215e-04
116 -1.48286408013940338e-04
117  6.00052970049631571e-05
118 -1.36118631559229630e-05
119  8.83083284115830126e-03
120  1.31515073774624209e-03
121 -1.31381096498846533e-03
122 -5.38518025736038717e-04
123  4.07110123502204865e-05
124 -1.95325976947950100e-04
125 -4.55289634919969842e-04
126 -1.14983328614610858e-04
127  2.12566633728231104e-04
128 -6.95790682975698353e-05
129  7.00981241270179145e-05
130  1.31794295675320916e-04
131 -6.61807477496597117e-06
132  1.79666202229969780e-05
133 -1.13040758900454911e-05
134 -5.39464771385373136e-04
135  9.39195644646480574e-05
136 -1.03057762066464497e-04
137  1.57417175218087924e-04
138  3.03415300789265782e-03
139 -5.02501893424216911e-04
140  1.18807615510391139e-04
141 -8.55626973464929390e-04
142  2.24040419228495211e-05
143  8.81164426125853443e-05
144  8.98660111884425774e-06
145 -6.53599771092973145e-06
146  2.97483597801988349e-05
147 -4.72441440917788311e-03
148  3.02882298603484625e-03
149  8.93485459596429858e-05
150  4.26440719521220901e-05
151  7.27748345258386970e-05
152 -5.58328123154325684e-04
153  3.82275525726360023e-04
154 -1.64572266008782271e-05
155 -1.87416832160539759e-04
156  2.42730011190330538e-04
 Sym= A
 Ene= -1.03643252418619394e+01
 Spin= Alpha
 Occup=  1.00000000000000000e+00
  1  5.62416041463504990e-01
  2  4.63027256786151198e-01
  3  2.44659429986025562e-04
  4 -4.97127118765160967e-05
  5  7.40022874063991551e-04
  6  1.86419753311163963e-02
  7 -2.82724291692312141e-03
  8 -4.35488210555254522e-05
  9 -3.16146923992954160e-03
 10 -1.35052260966973623e-02
 11  3.15657682283671404e-03
 12  6.28247987571963515e-04
 13  3.21459161131693396e-04
 14  1.60522228269923935e-03
 15  1.45178217077448178e-03
 16 -2.16730504472768592e-04
 17  6.16221606989236347e-04
 18 -4.52868059774160463e-06
 19  1.55656945342218592e-02
 20 -4.34018824195406359e-03
 21 -1.47578879259700779e-03
 22 -1.93077735500939650e-03
 23  2.75361148551751963e-04
 24 -8.32619776635269704e-04
 25  1.60301930769668911e-03
 26  2.23702410493576316e-02
 27  1.88745238527553913e-02
 28  5.95841072167302790e-04
 29 -1.12008283174782023e-05
 30  7.50603819422285745e-04
 31 -8.16537393571419154e-04
 32 -3.27542365477705285e-03
 33  6.28351543926450892e-05
 34 -4.13587037982095576e-03
 35  2.91722526347427513e-04
 36  4.26714548150854047e-04
 37 -4.13500099592803536e-04
 38  2.66622295993122803e-03
 39 -1.74861892786438685e-03
 40 -2.07611565173941148e-03
 41  8.97967759819486792e-05
 42 -2.52874190144496982e-04
 43  1.95476500029241520e-04
 44 -7.38811869281754460e-03
 45 -1.93472463770034725e-03
 46  5.16832733926615284e-04
 47 -1.34576925020926116e-04
 48 -2.74411798946934502e-04
 49  1.60697005321487808e-04
 50  1.64690454549826118e-03
 51 -2.22130816308272831e-05
 52  6.80893892843205769e-05
 53  2.35194708287197839e-04
 54  3.21069003928332837e-05
 55 -8.59613593671930529e-05
 56 -3.67297722889395198e-04
 57 -1.42291837749989290e-03
 58 -1.71624661182904293e-04
 59  4.18021062529366533e-04
 60  5.53825606406172215e-04
 61  6.68377024952391987e-04
 62  2.45653864896778085e-04
 63  1.37497331774997519e-04
 64  6.57689989840149879e-04
 65 -1.78109808379369166e-04
 66 -2.34722790803148998e-05
 67 -3.80550984623021524e-04
 68 -1.33309255127652369e-04
 69 -1.77803845249993805e-02
 70  2.54955694593289595e-03
 71 -4.60025391161519328e-05
 72 -3.65681512936603427e-03
 73 -9.19918650972454608e-05
 74 -6.41171699917463699e-05
 75  8.84457242078300065e-04
 76  8.19376121983523539e-05
 77  1.42519364711582409e-04
 78  2.34582910962203753e-05
 79  1.42588640551474160e-06
 80 -4.21889226202430185e-05
 81 -3.55566396771262849e-04
 82 -3.71060620434478900e-04
 83  2.62023329406592181e-06
 84  4.63061150216141518e-04
 85 -5.83226325796072902e-04
 86 -6.01717669899465312e-04
 87 -2.95902501992665169e-04
 88 -3.20601539976352900e-05
 89 -1.03925831393459237e-04