[Molden Format]
[Atoms] (AU)
C    1    6         2.688203947216       0.126267316038      -0.211284584910
H    2    1         4.728095907479       0.359456870713      -0.218011119477
C    3    6         1.369782617967       0.204435981782      -2.374855666231
H    4    1         2.318345438850       0.530982748944      -4.165937681460
C    5    6        -1.369782617967      -0.204435981782      -2.374855666231
H    6    1        -2.318345438850      -0.530982748944      -4.165937681460
C    7    6        -2.688203947216      -0.126267316038      -0.211284584910
H    8    1        -4.728095907290      -0.359456870902      -0.218011119477
C    9    6        -1.377448045575       0.458746757807       2.255586404767
H   10    1        -1.428727068278       2.518961490447       2.552818698465
H   11    1        -2.401900037590      -0.368832778254       3.849461186775
C   12    6         1.377448045575      -0.458746757807       2.255586404767
H   13    1         1.428727068278      -2.518961490069       2.552818698465
H   14    1         2.401900037401       0.368832778065       3.849461186397
[GTO]
  1 0
 s    6  1.00
     4563.2400000000         0.0019666500
      682.0240000000         0.0152306000
      154.9730000000         0.0761269000
       44.4553000000         0.2608010000
       13.0290000000         0.6164620000
        1.8277300000         0.2210060000
 s    3  1.00
       20.9642000000         0.1146600000
        4.8033100000         0.9199990000
        1.4593300000        -0.0030306800
 p    3  1.00
       20.9642000000         0.0402487000
        4.8033100000         0.2375940000
        1.4593300000         0.8158540000
 s    1  1.00
        0.4834560000         1.0000000000
 p    1  1.00
        0.4834560000         1.0000000000
 s    1  1.00
        0.1455850000         1.0000000000
 p    1  1.00
        0.1455850000         1.0000000000
 d    1  1.00
        0.6260000000         1.0000000000
 s    1  1.00
        0.0438000000         1.0000000000
 p    1  1.00
        0.0438000000         1.0000000000

  2 0
 s    3  1.00
       33.8650000000         0.0254938000
        5.0947900000         0.1903730000
        1.1587900000         0.8521610000
 s    1  1.00
        0.3258400000         1.0000000000
 s    1  1.00
        0.1027410000         1.0000000000

  3 0
 s    6  1.00
     4563.2400000000         0.0019666500
      682.0240000000         0.0152306000
      154.9730000000         0.0761269000
       44.4553000000         0.2608010000
       13.0290000000         0.6164620000
        1.8277300000         0.2210060000
 s    3  1.00
       20.9642000000         0.1146600000
        4.8033100000         0.9199990000
        1.4593300000        -0.0030306800
 p    3  1.00
       20.9642000000         0.0402487000
        4.8033100000         0.2375940000
        1.4593300000         0.8158540000
 s    1  1.00
        0.4834560000         1.0000000000
 p    1  1.00
        0.4834560000         1.0000000000
 s    1  1.00
        0.1455850000         1.0000000000
 p    1  1.00
        0.1455850000         1.0000000000
 d    1  1.00
        0.6260000000         1.0000000000
 s    1  1.00
        0.0438000000         1.0000000000
 p    1  1.00
        0.0438000000         1.0000000000

  4 0
 s    3  1.00
       33.8650000000         0.0254938000
        5.0947900000         0.1903730000
        1.1587900000         0.8521610000
 s    1  1.00
        0.3258400000         1.0000000000
 s    1  1.00
        0.1027410000         1.0000000000

  5 0
 s    6  1.00
     4563.2400000000         0.0019666500
      682.0240000000         0.0152306000
      154.9730000000         0.0761269000
       44.4553000000         0.2608010000
       13.0290000000         0.6164620000
        1.8277300000         0.2210060000
 s    3  1.00
       20.9642000000         0.1146600000
        4.8033100000         0.9199990000
        1.4593300000        -0.0030306800
 p    3  1.00
       20.9642000000         0.0402487000
        4.8033100000         0.2375940000
        1.4593300000         0.8158540000
 s    1  1.00
        0.4834560000         1.0000000000
 p    1  1.00
        0.4834560000         1.0000000000
 s    1  1.00
        0.1455850000         1.0000000000
 p    1  1.00
        0.1455850000         1.0000000000
 d    1  1.00
        0.6260000000         1.0000000000
 s    1  1.00
        0.0438000000         1.0000000000
 p    1  1.00
        0.0438000000         1.0000000000

  6 0
 s    3  1.00
       33.8650000000         0.0254938000
        5.0947900000         0.1903730000
        1.1587900000         0.8521610000
 s    1  1.00
        0.3258400000         1.0000000000
 s    1  1.00
        0.1027410000         1.0000000000

  7 0
 s    6  1.00
     4563.2400000000         0.0019666500
      682.0240000000         0.0152306000
      154.9730000000         0.0761269000
       44.4553000000         0.2608010000
       13.0290000000         0.6164620000
        1.8277300000         0.2210060000
 s    3  1.00
       20.9642000000         0.1146600000
        4.8033100000         0.9199990000
        1.4593300000        -0.0030306800
 p    3  1.00
       20.9642000000         0.0402487000
        4.8033100000         0.2375940000
        1.4593300000         0.8158540000
 s    1  1.00
        0.4834560000         1.0000000000
 p    1  1.00
        0.4834560000         1.0000000000
 s    1  1.00
        0.1455850000         1.0000000000
 p    1  1.00
        0.1455850000         1.0000000000
 d    1  1.00
        0.6260000000         1.0000000000
 s    1  1.00
        0.0438000000         1.0000000000
 p    1  1.00
        0.0438000000         1.0000000000

  8 0
 s    3  1.00
       33.8650000000         0.0254938000
        5.0947900000         0.1903730000
        1.1587900000         0.8521610000
 s    1  1.00
        0.3258400000         1.0000000000
 s    1  1.00
        0.1027410000         1.0000000000

  9 0
 s    6  1.00
     4563.2400000000         0.0019666500
      682.0240000000         0.0152306000
      154.9730000000         0.0761269000
       44.4553000000         0.2608010000
       13.0290000000         0.6164620000
        1.8277300000         0.2210060000
 s    3  1.00
       20.9642000000         0.1146600000
        4.8033100000         0.9199990000
        1.4593300000        -0.0030306800
 p    3  1.00
       20.9642000000         0.0402487000
        4.8033100000         0.2375940000
        1.4593300000         0.8158540000
 s    1  1.00
        0.4834560000         1.0000000000
 p    1  1.00
        0.4834560000         1.0000000000
 s    1  1.00
        0.1455850000         1.0000000000
 p    1  1.00
        0.1455850000         1.0000000000
 d    1  1.00
        0.6260000000         1.0000000000
 s    1  1.00
        0.0438000000         1.0000000000
 p    1  1.00
        0.0438000000         1.0000000000

  10 0
 s    3  1.00
       33.8650000000         0.0254938000
        5.0947900000         0.1903730000
        1.1587900000         0.8521610000
 s    1  1.00
        0.3258400000         1.0000000000
 s    1  1.00
        0.1027410000         1.0000000000

  11 0
 s    3  1.00
       33.8650000000         0.0254938000
        5.0947900000         0.1903730000
        1.1587900000         0.8521610000
 s    1  1.00
        0.3258400000         1.0000000000
 s    1  1.00
        0.1027410000         1.0000000000

  12 0
 s    6  1.00
     4563.2400000000         0.0019666500
      682.0240000000         0.0152306000
      154.9730000000         0.0761269000
       44.4553000000         0.2608010000
       13.0290000000         0.6164620000
        1.8277300000         0.2210060000
 s    3  1.00
       20.9642000000         0.1146600000
        4.8033100000         0.9199990000
        1.4593300000        -0.0030306800
 p    3  1.00
       20.9642000000         0.0402487000
        4.8033100000         0.2375940000
        1.4593300000         0.8158540000
 s    1  1.00
        0.4834560000         1.0000000000
 p    1  1.00
        0.4834560000         1.0000000000
 s    1  1.00
        0.1455850000         1.0000000000
 p    1  1.00
        0.1455850000         1.0000000000
 d    1  1.00
        0.6260000000         1.0000000000
 s    1  1.00
        0.0438000000         1.0000000000
 p    1  1.00
        0.0438000000         1.0000000000

  13 0
 s    3  1.00
       33.8650000000         0.0254938000
        5.0947900000         0.1903730000
        1.1587900000         0.8521610000
 s    1  1.00
        0.3258400000         1.0000000000
 s    1  1.00
        0.1027410000         1.0000000000

  14 0
 s    3  1.00
       33.8650000000         0.0254938000
        5.0947900000         0.1903730000
        1.1587900000         0.8521610000
 s    1  1.00
        0.3258400000         1.0000000000
 s    1  1.00
        0.1027410000         1.0000000000

[5D]
[9G]

[MO]
 Sym= A
 Ene= -1.37576537795943299e+01
 Spin= Alpha
 Occup=  1.00000000000000000e+00
  1  4.02745566839274988e-05
  2 -2.48065217273281782e-04
  3  1.02288455283774081e-04
  4  4.70322081838519117e-05
  5 -3.45665860081697857e-04
  6  1.29980369710026833e-03
  7 -1.15090820388746330e-03
  8 -1.64432270317078401e-04
  9  1.60648821158552568e-03
 10  7.24186950203686147e-03
 11 -1.85420176417656728e-03
 12 -5.62566555150548165e-04
 13 -1.56915275543199743e-03
 14  7.04488269900658865e-04
 15 -5.07913686369443947e-04
 16 -4.13340530590488277e-05
 17 -5.24205639302364329e-04
 18  6.12625674004772455e-04
 19  3.92256743810825564e-02
 20 -6.49153417712725143e-03
 21 -1.32821940724923206e-04
 22  1.55474866769929072e-02
 23  2.70201524492567728e-04
 24  1.29877711726044396e-04
 25 -1.67560267369494206e-03
 26  4.65996259687755175e-05
 27 -2.93584485125362841e-04
 28  2.01324247223917511e-04
 29 -8.87423741299295363e-05
 30 -1.17459956786286079e-04
 31  2.16775854110210723e-03
 32 -1.15327591447613440e-03
 33  2.60910376802132621e-04
 34  9.52644827540560703e-04
 35 -1.31349419534905441e-02
 36  5.85213386690193113e-03
 37  9.71485226611509952e-04
 38 -7.32785085885032713e-03
 39 -2.95528632205679660e-04
 40 -1.29013409314267995e-05
 41  1.99674131202815823e-05
 42 -7.80561959139013936e-05
 43  1.43607049377703148e-04
 44 -3.37545480476639376e-02
 45  1.39662302072558666e-02
 46 -1.87421844866882326e-05
 47 -4.42818931661432234e-03
 48  3.46982051563681838e-04
 49 -1.25934058412104002e-03
 50 -2.93521803710425746e-03
 51  7.53917161540747601e-05
 52 -4.05856157919807397e-04
 53  3.90358779995828931e-04
 54 -7.28193882616400646e-05
 55 -4.00019941803354427e-04
 56  2.00355070205508919e-03
 57 -2.61934988609737471e-03
 58  4.57903993299534106e-04
 59  4.03139991413251075e-03
 60  1.17356628489222372e-02
 61  8.69306849778845626e-03
 62  8.83286303034484495e-04
 63  6.08765896765664678e-03
 64  1.28462887773829340e-03
 65 -1.69490901108511121e-03
 66 -1.42393249845270005e-04
 67 -3.57454725771022867e-04
 68 -4.54027889710286099e-04
 69  8.88754896766588004e-02
 70  4.14143950490531570e-03
 71  3.92859429790194583e-03
 72  1.30617770129206907e-02
 73  1.44194551988014401e-04
 74  2.13879873101107667e-03
 75 -5.59191474086698291e-04
 76  6.20215591817138261e-05
 77 -4.15167962674754506e-04
 78 -6.78038531802339526e-04
 79 -3.87796465149382755e-04
 80 -2.24338268088354262e-03
 81  7.73005281679899135e-04
 82  1.44111980066452473e-03
 83  1.40207539113903286e-03
 84  9.24660806327348705e-03
 85 -2.41418736813872048e-02
 86 -1.40209996570681197e-02
 87 -3.18654088032867440e-03
 88 -1.24286379288939524e-02
 89  1.87056169254717257e-03
 90  4.90799672191904145e-03
 91  1.37591165043550717e-03
 92 -7.30415007653952632e-05
 93  5.95136621668042472e-04
 94 -6.48930199577900796e-02
 95 -1.33037789446163405e-02
 96 -2.84393347769612732e-03
 97  9.38682036642151003e-03
 98  7.17790898361793319e-04
 99 -8.51350372967896976e-04
100 -4.32824213022815849e-03
101  6.24514726209363435e-01
102  4.19880559987857338e-01
103  2.72484850740746867e-04
104 -5.02746100868266418e-04
105 -1.11399153090575875e-03
106 -5.58149619216024712e-02
107 -1.65134384499746739e-03
108  2.51842574802723599e-03
109  5.18371319934780948e-03
110  8.25655854446135651e-02
111  3.94484142859436067e-03
112 -3.14458940062246894e-03
113 -9.58657328463158320e-03
114 -5.51938185044062511e-04
115 -1.89885311466376095e-03
116 -6.46829031749103587e-04
117 -1.59171640896441633e-03
118  3.81283887254523651e-04
119  3.55120974490365782e-02
120  4.93625957099688359e-03
121  3.16429224842152811e-03
122 -2.49075577401693029e-03
123  1.35649461960176397e-03
124 -4.37830203137993656e-03
125 -1.30496684678335084e-02
126  1.21254458195822409e-03
127 -3.35753413817787292e-03
128 -1.16507396087958889e-02
129  7.59749821930731043e-05
130 -4.89573679445911084e-04
131  1.72875042735071323e-03
132 -5.60823595959355982e-04
133 -2.13169244624001805e-04
134  1.61856140989053094e-03
135 -5.19129093753349560e-03
136  1.65181198786490163e-03
137  9.83015234884399101e-04
138 -2.11577843506799597e-02
139  9.66373249050645443e-03
140 -4.48700853219301168e-03
141 -3.45380780783005419e-04
142 -2.08687344438499098e-03
143  4.95894497020957247e-04
144  2.40482057890073492e-04
145  2.84420546155864356e-03
146 -2.18398505136292416e-03
147 -5.70044139554200871e-02
148 -4.33659436523989913e-03
149 -8.12828319054439280e-03
150  9.40242243852852135e-03
151  6.86166030305102059e-04
152  1.19013414919945230e-03
153 -1.48136609145313046e-03
154  3.75534390744857545e-04
155  1.88495416678377699e-03
156  1.82241950830981615e-03
 Sym= A
 Ene= -1.14819290784315644e+01
 Spin= Alpha
 Occup=  1.00000000000000000e+00
  1  3.00841860302520758e-03
  2  2.43609751915247136e-03
  3 -5.10760463226829029e-05
  4 -3.53505775989440820e-05
  5  1.34847633453112533e-04
  6  2.61159438472006544e-04
  7 -1.45907254503999090e-04
  8 -1.20885171954525216e-05
  9  1.55569294625681478e-04
 10  8.00866660844668930e-04
 11 -2.04119969852833001e-04
 12 -1.35322221342698052e-04
 13  5.41693239151708303e-04
 14  2.53410407801900634e-05
 15 -7.41071045774883118e-05
 16 -6.00288032773561767e-06
 17  4.04999405318688514e-05
 18  5.67282841118375190e-06
 19  4.13611326450363716e-03
 20 -8.64113912646120906e-04
 21 -8.94138572971124292e-05
 22  1.31122188870863674e-04
 23 -7.48420629392092399e-06
 24 -2.88208185759489560e-05
 25  1.08786645017627324e-05
 26 -2.95964915624322104e-05
 27 -2.22204608324366069e-05
 28  1.71733961746069602e-06
 29 -1.58715432642122667e-06
 30  1.82995466919056383e-06
 31 -9.42840361879329507e-06
 32 -1.25466894392524294e-05
 33  9.96107613374251749e-06
 34 -3.52418447450164810e-05
 35 -8.98578522331212897e-05
 36  2.41042344338775850e-04
 37  1.96076770026066921e-05
 38 -5.34237997068010175e-05
 39 -9.26535162434473659e-06
 40 -9.38990119159352283e-07
 41 -8.53749863138568608e-06
 42  5.15445167719366677e-06
 43  6.61258172864638081e-06
 44 -4.33336113960890775e-03
 45  5.64936775540704939e-04
 46  1.36968684348014706e-04
 47 -5.54810417793600696e-04
 48  5.84695254438733197e-06
 49 -4.15900848958451890e-05
 50  5.64850486623502915e-05
 51 -4.83492664729669026e-05
 52 -3.93356822934409317e-05
 53  4.90695317007831237e-06
 54 -1.63209284030550369e-06
 55 -3.18204733661107706e-06
 56 -1.65617295959771356e-05
 57 -4.24190281691444004e-05
 58  1.18993351664071057e-05
 59  2.31928366831152611e-05
 60  3.27645696627530832e-04
 61  1.75917287437717985e-04
 62  1.68624483416842388e-05
 63  1.43854786340190941e-04
 64  1.86765385883707832e-05
 65 -1.38279517766808908e-05
 66 -5.74895642273209061e-06
 67  1.01263391878047570e-06
 68 -3.92163006856558347e-06
 69  2.83829426440337278e-03
 70  6.82575098785040196e-04
 71  7.51994667068566424e-05
 72  2.59549501085215182e-04
 73 -4.81387395622071027e-06
 74  3.76718477450980303e-05
 75  7.25888431527271923e-06
 76 -8.57013461403165352e-05
 77 -7.35047508378081532e-05
 78  2.50128158554088993e-06
 79 -6.97880897623767951e-06
 80 -1.28391405363445858e-05
 81  1.84847318222957842e-06
 82 -2.65733712049783405e-05
 83  3.06570001017047992e-05
 84  7.36635382826902066e-05
 85 -3.34872968868890717e-04
 86 -1.50766345093536442e-04
 87 -5.27036483770715490e-05
 88 -6.35746513627044130e-05
 89  2.31569271417484521e-05
 90  4.20021086370054130e-05
 91  1.36010631149027380e-05
 92 -7.13315516541114518e-06
 93  3.70472494919184201e-06
 94 -1.39439693833153986e-03
 95 -3.09967769499239849e-04
 96 -2.12751870027986073e-05
 97 -2.44586495228354939e-04
 98  6.40057748992262063e-06
 99 -3.81713510397270576e-06
100 -1.50498291371058169e-05
101 -1.14080205721555546e-04
102 -1.66824577574760575e-04
103  9.77313217257159229e-05
104 -4.01081897611074177e-05
105 -3.89105333541991375e-06
106  3.36793257205054183e-04
107  7.10700243051614732e-04
108 -2.04691074458400934e-04
109  2.45205473531098503e-05
110  1.19036566505935728e-03
111  2.96679831064480901e-04
112 -1.19999824449262604e-04
113 -1.01725836221716159e-04
114 -2.04152312696407348e-04
115 -3.26899690177913873e-05
116  4.20892870290186963e-06
117  2.60309900841387398e-04
118 -1.98242966302588025e-04
119  2.88670611181829481e-03
120  2.99517836202192354e-04
121 -2.82725255582174078e-04
122 -1.54486101614353689e-04
123  2.97170972107803497e-05
124 -1.04209387464947935e-04
125 -1.43767258040084516e-05
126  3.24591581712357547e-05
127 -7.95497459730492624e-05
128 -1.19093165924076433e-04
129  5.63471875269770606e-01
130  4.66570282893951471e-01
131 -1.28288117317599702e-03
132  4.68724343931561623e-04
133 -1.20587932588918446e-04
134  4.13000253326140793e-03
135  1.13121745841759328e-03
136 -4.14261192053178397e-04
137  1.03917948579158772e-04
138 -2.97534459668504902e-03
139 -3.07862855355045366e-04
140  1.23703643847947381e-06
141  2.35227875417390341e-04
142  2.45371089386680816e-04
143  2.49283000443137990e-05
144  3.69682881541091578e-05
145 -3.82157354481582265e-04
146  2.83136530498607575e-04
147 -4.61458834294492526e-03
148  4.76600107784509871e-04
149 -2.50476121040250812e-04
150  4.38304584511856597e-04
151  3.02022760237703129e-04
152  1.49705244788970348e-04
153  7.85465420696549051e-04
154  3.05776787422949118e-04
155  1.36574616282546084e-04
156  8.06248027262434900e-04
 Sym= A
 Ene= -1.14631056394155024e+01
 Spin= Alpha
 Occup=  1.00000000000000000e+00
  1 -9.72721851919957985e-05
  2 -7.99702463272803591e-05
  3  2.65740950319633591e-06
  4  2.28229537361649662e-06
  5 -8.23730257019009166e-06
  6  1.49768952933380825e-05
  7  7.94305744930452818e-06
  8 -6.55113665695240028e-06
  9  5.96313229898976573e-05
 10 -2.84314933776774357e-04
 11  2.51284144971926555e-04
 12  5.06177340890010192e-05
 13 -8.29738614530879644e-06
 14 -1.47505347873531595e-06
 15 -3.06257134770983441e-05
 16 -2.06090234749309211e-07
 17 -5.59658235034075505e-06
 18  8.20838951219574181e-06
 19  2.26434861363234092e-03
 20 -3.66978002979648221e-04
 21  6.34394685253230446e-05
 22 -8.64900217048197493e-04
 23  3.95119239843811521e-06
 24 -3.68543536400090373e-05
 25 -9.50173696362735228e-05
 26  4.81508798960038345e-05
 27  4.06615103904342171e-05
 28 -9.45954977001798477e-06
 29 -2.29987782292198818e-06
 30 -1.24926530594749533e-05
 31 -6.93351039939254716e-06
 32  6.03359914438289150e-05
 33  1.04553256992101970e-05
 34  5.51909724946648601e-05
 35  4.98756049631261713e-04
 36 -1.76857728917839408e-04
 37 -5.92064802440531315e-05
 38  1.25590734456394542e-04
 39  4.13867537138731605e-05
 40 -2.49279627340397671e-06
 41 -3.79691318492790129e-06
 42 -1.80328524169906507e-05
 43 -7.71176606637906836e-06
 44 -4.53714297233903923e-03
 45 -3.18897515131104283e-05
 46  4.54152724296536022e-05
 47 -7.66332609108817306e-04
 48 -4.42072536139904640e-06
 49  3.73453079761290944e-06
 50  1.35973611400652661e-04
 51  1.76662679617753046e-02
 52  1.46146233925765808e-02
 53 -1.54136580730536606e-04
 54  7.89805379421334952e-06
 55  2.34563671633695732e-04
 56  1.90776275827631600e-04
 57  2.89265117745136208e-04
 58 -7.47573778675515350e-07
 59 -3.66343664338701603e-04
 60 -4.33181881160919064e-04
 61 -3.81155604913872620e-04
 62 -3.32385739671670576e-05
 63  1.10968109701711184e-05
 64 -1.23675492594351090e-04
 65  1.36964971247490608e-04
 66 -1.77893288387251016e-05
 67 -1.06982678494325326e-04
 68 -1.42620746329491297e-05
 69  7.36322099252320963e-04
 70  6.87475344319063387e-04
 71  6.49445412501900056e-05
 72  2.69156883741034612e-04
 73  3.31127856742978307e-06
 74 -4.03512432420365528e-05
 75  4.41122192496416968e-05
 76  5.63113102977558899e-01
 77  4.66346366741542950e-01
 78  6.09728465845910377e-04
 79  3.00215214665893457e-04
 80  1.56135906796560906e-03
 81  4.16761098682302128e-03
 82 -2.18797346445842540e-04
 83 -2.67625935524549823e-04
 84 -1.88159888075853463e-03
 85 -7.77471473267737348e-04
 86  2.73226345405410548e-04
 87  8.59990392325527952e-05
 88  6.29493615536460302e-04
 89  3.25752341482000142e-05
 90 -7.37967530326844251e-04
 91 -8.69667086497558539e-05
 92  2.26658111036950709e-04
 93 -4.59231675894092222e-05
 94 -5.63757904750472366e-05
 95  4.08027207874884612e-04
 96  1.10655824805829386e-05
 97 -9.72389166222824937e-04
 98  3.43423080249571455e-04
 99 -1.17773696335932843e-04
100  6.00015547118603536e-04
101 -1.21752291885679278e-04
102 -1.94106396113615854e-04
103 -4.21278616083884823e-05
104 -3.47119084641778946e-05
105 -1.03915652676617027e-04
106  5.15133508114563963e-04
107 -4.21891338148722703e-04
108 -1.37838626822441951e-04
109 -6.92511676665907698e-04
110 -2.63670325511906656e-05
111  1.42759949526435756e-04
112  1.14978141260041732e-04
113  1.14924070672850492e-04
114  2.70032450812055999e-04
115  2.86455970716530508e-04
116  1.31806111519804911e-04
117 -4.84821313099275607e-06
118  7.07383416234777290e-05
119  1.99875072670508119e-03
120 -2.92539082033039567e-04
121 -3.45097605214162578e-04
122 -1.33182540395984308e-04
123  1.36320968400595929e-05
124 -3.90945678970539627e-05
125 -1.56944826176398839e-04
126  2.72826237076005955e-05
127  6.18359895368603092e-05
128 -2.57340083631806612e-04
129  9.17516461416599213e-05
130  6.84063090454875333e-05
131  1.68950391718171944e-05
132 -1.14404334031851994e-05
133 -2.98836736957985393e-06
134  1.11378015751794403e-05
135 -7.79626908881721491e-05
136  4.79113433121741697e-05
137  2.19256730618772767e-05
138  1.19609939949870758e-04
139  1.52485899087762602e-05
140 -1.06072866329627526e-04
141 -7.00673634987081760e-05
142 -4.35542209645251569e-05
143 -4.24924305334639594e-06
144 -8.47028373196544010e-06
145  2.53771940679074667e-05
146 -4.01137147889414899e-05
147 -1.87678348847009345e-04
148  5.05090759212154222e-04
149  1.48407890670562644e-04
150 -2.28084355299382241e-05
151  1.46941845914860448e-05
152 -7.25263805453753117e-05
153 -2.11974302459833045e-05
154  8.96529570693573407e-06
155  2.61504573705065180e-05
156 -4.24913942197231465e-05
 Sym= A
 Ene= -1.14371916001284024e+01
 Spin= Alpha
 Occup=  1.00000000000000000e+00
  1  2.89895258495185464e-04
  2  2.30010029547315063e-04
  3  6.05238473461886065e-06
  4 -4.54603407800543745e-06
  5  7.46490803577635643e-06
  6  6.61307691948120305e-05
  7 -4.27547803564364020e-05
  8  1.53983725430082432e-05
  9 -7.07230788965894505e-05
 10 -2.84922968652403521e-04
 11  1.54420386136077433e-04
 12  3.93944375068485623e-06
 13  5.99652103873306235e-05
 14 -2.53493642776080517e-06
 15  4.10622268025553005e-05
 16  2.27742093795678050e-06
 17  8.48219180471535256e-06
 18 -7.81608857777744154e-06
 19  7.68364642254199697e-04
 20 -8.09699150735931022e-05
 21  1.08696116576357960e-04
 22 -8.54868413404372965e-04
 23  5.70201464116915572e-06
 24 -5.61958685854600837e-06
 25 -2.04081278361943128e-05
 26  9.01542055770593494e-03
 27  7.39337478379792183e-03
 28 -1.55143651590735363e-04
 29 -2.09649132847335967e-05
 30  6.85170697091396682e-06
 31  3.99405295300809713e-04
 32 -3.54452556447413375e-04
 33 -4.90927853890164195e-05
 34 -5.26113482759236120e-05
 35  2.56380181700049112e-04
 36 -3.23565291000982950e-05
 37 -1.52263343972859943e-05
 38  2.16833192575407730e-04
 39 -1.40679491274059898e-04
 40 -2.92918962090045079e-05
 41 -7.58248185320313201e-06
 42  8.86706024825141851e-05
 43  2.38173915464228300e-05
 44 -2.30542489960362156e-03
 45 -3.83214142114490525e-04
 46 -4.62435400938861226e-05
 47 -5.25042581684970460e-04
 48  1.23046368946279700e-05
 49  2.78055953659092579e-05
 50  7.58920292699898042e-05
 51  5.63008019705173557e-01
 52  4.66278090554892888e-01
 53  2.14989687958674496e-04
 54  5.34683817877375485e-06
 55  2.91744491989805623e-05
 56  4.22695621550057618e-03
 57 -3.83568929375515061e-04
 58  3.89708451796144421e-06
 59  3.17549640124561896e-04
 60 -8.41051624304850324e-04
 61 -9.63577434220435697e-05
 62 -2.99119683085381750e-05
 63 -1.84293735582324414e-04
 64  3.75410763492778615e-04
 65 -1.98574037421175696e-04
 66  9.18600280871319631e-05
 67  3.13185093363533434e-04
 68  6.04714198393159727e-05
 69  1.46454426974158055e-03
 70  2.03843311737486404e-04
 71  5.66662992632337780e-05
 72  7.01448933492632609e-04
 73  3.97942495508381159e-04
 74 -1.75916089512125686e-04
 75  3.28113873785253240e-04
 76 -1.79058360330261283e-02
 77 -1.48889661025453507e-02
 78  1.28375005058199211e-04
 79 -1.45829978854135221e-05
 80 -2.67144281203034574e-04
 81  1.45320200137861956e-04
 82 -6.91368215890450440e-06
 83  1.16160400933586379e-05
 84  1.14739234860371684e-04
 85 -1.22905559726408885e-05
 86  2.01183750829769711e-04
 87  8.53107899606006817e-06
 88 -1.30946630968219567e-05
 89 -6.66572053717638614e-05
 90 -3.44381002991858110e-07
 91 -2.91192828735249242e-05
 92 -1.02412047845979628e-04
 93 -3.01317232668468553e-05
 94 -1.41797410113298720e-03
 95 -1.39293037726757668e-04
 96  4.92723627934393588e-05
 97 -1.39009320954006045e-04
 98 -1.27677565358818667e-05
 99  3.22862949534956440e-05
100  9.21775098259928599e-05
101  1.06656189458803294e-05
102  8.18757706818309083e-06
103 -5.38945735707050409e-07
104  4.43301244969771661e-06
105  2.01828238242078747e-05
106  7.66032736569641102e-07
107  2.23597884044740848e-05
108 -1.49292314186323554e-06
109  3.54011158612910443e-06
110 -2.22030679353334398e-04
111 -7.04203477445382363e-05
112  8.55811206487732182e-05
113  8.66802445011737868e-05
114  1.35294401550384537e-06
115 -1.88653827658568313e-05
116 -3.00443216797175716e-06
117 -3.63425106887168418e-06
118  1.26723624709375596e-06
119  1.44541661740695188e-03
120  6.44151954644002256e-05
121 -2.81706313510533780e-04
122 -7.95843303754735357e-05
123 -5.58022058570871689e-07
124 -5.09076512321442325e-06
125 -8.29188661225342970e-05
126 -6.72294338795939905e-06
127  4.41568744936414771e-05
128 -1.24485976146220168e-04
129  4.67453291383896326e-05
130  3.93678069113796643e-05
131 -8.46761714729320399e-08
132 -2.14449451295549760e-06
133  7.94953914399708407e-06
134 -2.37562009954758351e-05
135  1.10469873169114502e-05
136  6.90236650877627375e-06
137 -2.36691277365390890e-05
138  2.38289120751561373e-04
139 -6.25374381727578305e-05
140 -1.04363688887210490e-05
141 -1.75693693583979156e-05
142  7.06915735032547293e-06
143 -8.80915831911505373e-06
144 -4.88683665400012084e-06
145  1.30910258840505704e-06
146  1.32963586223504869e-06
147  2.28472751020200718e-04
148  5.46188375557634764e-04
149  1.29297725306460649e-04
150 -1.74955291279757985e-04
151  7.84927460336822624e-06
152 -5.15399826329604626e-05
153  3.45796397605408978e-06
154  1.41696980518465974e-06
155 -4.98533618086895321e-06
156 -5.95889984047608495e-05
 Sym= A
 Ene= -1.14212278614116443e+01
 Spin= Alpha
 Occup=  1.00000000000000000e+00
  1 -5.61232287266287044e-01
  2 -4.64784565206210920e-01
  3  1.72004488434112371e-04
  4  9.14744509038942449e-05
  5 -6.19005547130454929e-04
  6 -4.17021098799439782e-03
  7  9.53450084107991595e-05
  8 -8.60928827785215084e-05
  9  8.96790207977961741e-04
 10  5.35153545327570770e-04
 11  1.01897899019301234e-05
 12 -1.68898619825593596e-05
 13 -2.03369572373482687e-04
 14 -2.41628082425739355e-04
 15 -4.01261630101361908e-04
 16  4.70161734192412053e-05
 17 -3.60342987203956264e-04
 18 -2.98531684734838957e-05
 19  4.49563592965863143e-04
 20  2.86000230923804289e-04
 21  1.20908882167561726e-04
 22  4.55964810397337290e-04
 23 -3.84115277741519160e-04
 24  1.48373900688621732e-04
 25 -3.88913298563211597e-04
 26 -4.88487386344442290e-02
 27 -4.04157496954383397e-02
 28 -9.69085208203848540e-05
 29  1.01185400753078046e-05
 30 -2.25445978284859975e-04
 31 -5.74308291382727562e-04
 32  6.13435960520107392e-05
 33 -4.01094153554038627e-06
 34  1.38318813835153415e-04
 35  4.10210996244888930e-04
 36 -7.09090039004690539e-05
 37  1.96390831132007932e-05
 38 -2.52838604202546929e-05
 39  4.94631449602152628e-05
 40  1.38288474792740088e-05
 41 -1.51721109637700987e-05
 42  9.67957047678638031e-05
 43  2.65809933447020799e-05
 44 -6.82612067081125136e-04
 45  2.55302402471712536e-04
 46 -2.42152071453253757e-05
 47 -4.09804111281840129e-04
 48 -3.38722961350852549e-05
 49  1.10246862216250760e-05
 50 -9.50584241238616246e-05
 51  1.07538127622655143e-03
 52  8.98030233465934810e-04
 53 -6.78253782596549406e-06
 54 -1.19404236671983239e-06
 55  9.95300929713220786e-06
 56 -1.86433925864948893e-05
 57 -2.67295665947801313e-05
 58 -1.38593262404408141e-06
 59 -3.11845159000088479e-05
 60 -2.96226275344004019e-04
 61 -2.81282201405279168e-05
 62 -3.20133059919044626e-05
 63 -1.16940641291397442e-04
 64 -6.00509211572358614e-06
 65 -2.28644994528026564e-05
 66 -3.74602656304623202e-06
 67 -2.75236445948162297e-06
 68  2.08718974057734502e-06
 69  3.57190687757297405e-03
 70 -3.51702192491354414e-04
 71  1.71911805003368233e-05
 72  7.62182175585094670e-04
 73  2.86350174087589406e-06
 74 -6.43673849348884422e-06
 75 -8.75741415446915073e-05
 76 -1.30110683568544419e-04
 77 -1.06082521972778604e-04
 78  4.39160698300943938e-06
 79  5.49378328603001521e-07
 80  7.28901243493105291e-07
 81 -2.47391930902411651e-05
 82 -4.73104743476653010e-06
 83 -1.25527623857099980e-06
 84 -9.62142454365370074e-06
 85  2.60619100355543231e-04
 86  2.09357095678334201e-04
 87  4.41022789907722626e-05
 88 -5.41649222645274278e-05
 89 -4.96608991950489108e-06