[Molden Format]
[Atoms] (AU)
C    1    6         2.674339352612       0.165952383113      -0.194478460003
H    2    1         4.696468756380       0.431127150414      -0.059281190058
C    3    6         1.361478335750       0.243835370266      -2.347028102226
H    4    1         2.314527002872       0.639502474174      -4.115569058884
C    5    6        -1.361478248634      -0.243835521633      -2.347028057628
H    6    1        -2.314527009864      -0.639502619116      -4.115568975358
C    7    6        -2.674339318219      -0.165952220597      -0.194478461326
H    8    1        -4.696468717452      -0.431126958040      -0.059281149240
C    9    6        -1.309901954059       0.490612928269       2.198212914587
H   10    1        -1.257269329980       2.492746154223       2.413534157646
H   11    1        -2.293233780350      -0.216766239337       3.792386996332
C   12    6         1.309901914563      -0.490612881026       2.198212900792
H   13    1         1.257269240218      -2.492746137782       2.413533902722
H   14    1         2.293233756162       0.216766117261       3.792387058504
[GTO]
  1 0
 s    6  1.00
     4563.2400000000         0.0019666500
      682.0240000000         0.0152306000
      154.9730000000         0.0761269000
       44.4553000000         0.2608010000
       13.0290000000         0.6164620000
        1.8277300000         0.2210060000
 s    3  1.00
       20.9642000000         0.1146600000
        4.8033100000         0.9199990000
        1.4593300000        -0.0030306800
 p    3  1.00
       20.9642000000         0.0402487000
        4.8033100000         0.2375940000
        1.4593300000         0.8158540000
 s    1  1.00
        0.4834560000         1.0000000000
 p    1  1.00
        0.4834560000         1.0000000000
 s    1  1.00
        0.1455850000         1.0000000000
 p    1  1.00
        0.1455850000         1.0000000000
 d    1  1.00
        0.6260000000         1.0000000000
 s    1  1.00
        0.0438000000         1.0000000000
 p    1  1.00
        0.0438000000         1.0000000000

  2 0
 s    3  1.00
       33.8650000000         0.0254938000
        5.0947900000         0.1903730000
        1.1587900000         0.8521610000
 s    1  1.00
        0.3258400000         1.0000000000
 s    1  1.00
        0.1027410000         1.0000000000

  3 0
 s    6  1.00
     4563.2400000000         0.0019666500
      682.0240000000         0.0152306000
      154.9730000000         0.0761269000
       44.4553000000         0.2608010000
       13.0290000000         0.6164620000
        1.8277300000         0.2210060000
 s    3  1.00
       20.9642000000         0.1146600000
        4.8033100000         0.9199990000
        1.4593300000        -0.0030306800
 p    3  1.00
       20.9642000000         0.0402487000
        4.8033100000         0.2375940000
        1.4593300000         0.8158540000
 s    1  1.00
        0.4834560000         1.0000000000
 p    1  1.00
        0.4834560000         1.0000000000
 s    1  1.00
        0.1455850000         1.0000000000
 p    1  1.00
        0.1455850000         1.0000000000
 d    1  1.00
        0.6260000000         1.0000000000
 s    1  1.00
        0.0438000000         1.0000000000
 p    1  1.00
        0.0438000000         1.0000000000

  4 0
 s    3  1.00
       33.8650000000         0.0254938000
        5.0947900000         0.1903730000
        1.1587900000         0.8521610000
 s    1  1.00
        0.3258400000         1.0000000000
 s    1  1.00
        0.1027410000         1.0000000000

  5 0
 s    6  1.00
     4563.2400000000         0.0019666500
      682.0240000000         0.0152306000
      154.9730000000         0.0761269000
       44.4553000000         0.2608010000
       13.0290000000         0.6164620000
        1.8277300000         0.2210060000
 s    3  1.00
       20.9642000000         0.1146600000
        4.8033100000         0.9199990000
        1.4593300000        -0.0030306800
 p    3  1.00
       20.9642000000         0.0402487000
        4.8033100000         0.2375940000
        1.4593300000         0.8158540000
 s    1  1.00
        0.4834560000         1.0000000000
 p    1  1.00
        0.4834560000         1.0000000000
 s    1  1.00
        0.1455850000         1.0000000000
 p    1  1.00
        0.1455850000         1.0000000000
 d    1  1.00
        0.6260000000         1.0000000000
 s    1  1.00
        0.0438000000         1.0000000000
 p    1  1.00
        0.0438000000         1.0000000000

  6 0
 s    3  1.00
       33.8650000000         0.0254938000
        5.0947900000         0.1903730000
        1.1587900000         0.8521610000
 s    1  1.00
        0.3258400000         1.0000000000
 s    1  1.00
        0.1027410000         1.0000000000

  7 0
 s    6  1.00
     4563.2400000000         0.0019666500
      682.0240000000         0.0152306000
      154.9730000000         0.0761269000
       44.4553000000         0.2608010000
       13.0290000000         0.6164620000
        1.8277300000         0.2210060000
 s    3  1.00
       20.9642000000         0.1146600000
        4.8033100000         0.9199990000
        1.4593300000        -0.0030306800
 p    3  1.00
       20.9642000000         0.0402487000
        4.8033100000         0.2375940000
        1.4593300000         0.8158540000
 s    1  1.00
        0.4834560000         1.0000000000
 p    1  1.00
        0.4834560000         1.0000000000
 s    1  1.00
        0.1455850000         1.0000000000
 p    1  1.00
        0.1455850000         1.0000000000
 d    1  1.00
        0.6260000000         1.0000000000
 s    1  1.00
        0.0438000000         1.0000000000
 p    1  1.00
        0.0438000000         1.0000000000

  8 0
 s    3  1.00
       33.8650000000         0.0254938000
        5.0947900000         0.1903730000
        1.1587900000         0.8521610000
 s    1  1.00
        0.3258400000         1.0000000000
 s    1  1.00
        0.1027410000         1.0000000000

  9 0
 s    6  1.00
     4563.2400000000         0.0019666500
      682.0240000000         0.0152306000
      154.9730000000         0.0761269000
       44.4553000000         0.2608010000
       13.0290000000         0.6164620000
        1.8277300000         0.2210060000
 s    3  1.00
       20.9642000000         0.1146600000
        4.8033100000         0.9199990000
        1.4593300000        -0.0030306800
 p    3  1.00
       20.9642000000         0.0402487000
        4.8033100000         0.2375940000
        1.4593300000         0.8158540000
 s    1  1.00
        0.4834560000         1.0000000000
 p    1  1.00
        0.4834560000         1.0000000000
 s    1  1.00
        0.1455850000         1.0000000000
 p    1  1.00
        0.1455850000         1.0000000000
 d    1  1.00
        0.6260000000         1.0000000000
 s    1  1.00
        0.0438000000         1.0000000000
 p    1  1.00
        0.0438000000         1.0000000000

  10 0
 s    3  1.00
       33.8650000000         0.0254938000
        5.0947900000         0.1903730000
        1.1587900000         0.8521610000
 s    1  1.00
        0.3258400000         1.0000000000
 s    1  1.00
        0.1027410000         1.0000000000

  11 0
 s    3  1.00
       33.8650000000         0.0254938000
        5.0947900000         0.1903730000
        1.1587900000         0.8521610000
 s    1  1.00
        0.3258400000         1.0000000000
 s    1  1.00
        0.1027410000         1.0000000000

  12 0
 s    6  1.00
     4563.2400000000         0.0019666500
      682.0240000000         0.0152306000
      154.9730000000         0.0761269000
       44.4553000000         0.2608010000
       13.0290000000         0.6164620000
        1.8277300000         0.2210060000
 s    3  1.00
       20.9642000000         0.1146600000
        4.8033100000         0.9199990000
        1.4593300000        -0.0030306800
 p    3  1.00
       20.9642000000         0.0402487000
        4.8033100000         0.2375940000
        1.4593300000         0.8158540000
 s    1  1.00
        0.4834560000         1.0000000000
 p    1  1.00
        0.4834560000         1.0000000000
 s    1  1.00
        0.1455850000         1.0000000000
 p    1  1.00
        0.1455850000         1.0000000000
 d    1  1.00
        0.6260000000         1.0000000000
 s    1  1.00
        0.0438000000         1.0000000000
 p    1  1.00
        0.0438000000         1.0000000000

  13 0
 s    3  1.00
       33.8650000000         0.0254938000
        5.0947900000         0.1903730000
        1.1587900000         0.8521610000
 s    1  1.00
        0.3258400000         1.0000000000
 s    1  1.00
        0.1027410000         1.0000000000

  14 0
 s    3  1.00
       33.8650000000         0.0254938000
        5.0947900000         0.1903730000
        1.1587900000         0.8521610000
 s    1  1.00
        0.3258400000         1.0000000000
 s    1  1.00
        0.1027410000         1.0000000000

[5D]
[9G]

[MO]
 Sym= A
 Ene= -1.37509319997723303e+01
 Spin= Alpha
 Occup=  1.00000000000000000e+00
  1 -4.73288761015380622e-05
  2  2.82173384370346624e-04
  3 -4.00772097955871012e-05
  4 -9.63618577805908414e-05
  5  3.59874482917720234e-04
  6 -1.64902541925843389e-03
  7  1.01919719666916609e-03
  8  3.74526213840403960e-04
  9 -1.81880907493056328e-03
 10 -4.19946229678769354e-03
 11  8.81850702960890556e-04
 12  2.24759377228832583e-04
 13  2.24673010023916436e-03
 14 -7.88950230166989485e-04
 15  6.25719562727475027e-04
 16  1.11305093309481553e-04
 17  6.11971028197716839e-04
 18 -7.16551474681378789e-04
 19 -3.60217264417669186e-02
 20  6.08616627513756166e-03
 21  8.68912009185084122e-04
 22 -1.34506513356827586e-02
 23 -2.72385926203981554e-04
 24 -2.08513177730713597e-04
 25  1.49838099763081444e-03
 26 -4.89499778755283021e-05
 27  3.02405880280882044e-04
 28 -1.82360687129454202e-04
 29  8.87271783472078578e-05
 30  1.08345609949824095e-04
 31 -2.27836080357426149e-03
 32  1.07893156493856683e-03
 33 -2.50333917636507027e-04
 34 -1.05338105959435001e-03
 35  1.13671469742763643e-02
 36 -5.22596286260186994e-03
 37 -9.27272203304088010e-04
 38  6.68794978655927637e-03
 39  2.66961575624591579e-04
 40 -2.93559515914224705e-05
 41 -1.51258492414239657e-05
 42  1.35307306316916531e-04
 43 -1.46862837641478306e-04
 44  3.51020045949647849e-02
 45 -1.31608763315422834e-02
 46 -7.45137916451374849e-04
 47  4.64969601422700590e-03
 48 -3.48238072925163746e-04
 49  1.22163158207689139e-03
 50  2.65532802755748731e-03
 51 -7.86333285419743241e-05
 52  4.16370493555389266e-04
 53 -3.77379777450780572e-04
 54  5.59326892716872719e-05
 55  3.30879973587424507e-04
 56 -2.26822358563818008e-03
 57  2.57759138648830767e-03
 58 -4.18711823092510866e-04
 59 -3.88296970885036209e-03
 60 -1.05134941495833197e-02
 61 -7.07962418432525262e-03
 62 -8.39030005021677459e-04
 63 -4.78702894998981558e-03
 64 -1.13099203719909031e-03
 65  1.74883494124870452e-03
 66  2.01929022879262176e-04
 67  2.98657026144305657e-04
 68  4.94532874955028894e-04
 69 -9.08390767505617286e-02
 70 -3.61490832553823960e-03
 71 -3.65617167197861354e-03
 72 -1.34616463833089547e-02
 73 -2.21994481586957774e-04
 74 -1.70691403371210268e-03
 75  1.21042252365662116e-03
 76 -6.67722841435691646e-05
 77  4.15909129573816254e-04
 78  7.20401727766354955e-04
 79  4.24012563791903495e-04
 80  2.14168309824363991e-03
 81 -6.83526776836752533e-04
 82 -1.61669838693284922e-03
 83 -1.54258244979092025e-03
 84 -8.97510724361982697e-03
 85  2.28770393244315008e-02
 86  1.24252148878791456e-02
 87  3.25381065872877833e-03
 88  1.08260215604620794e-02
 89 -1.60310354256284538e-03
 90 -4.98285689833920763e-03
 91 -1.52504708177049497e-03
 92 -1.42020039395194943e-05
 93 -7.24243163277992754e-04
 94  7.38285830921328740e-02
 95  1.41474313957748767e-02
 96  2.73802241964846193e-03
 97 -8.73007759735588452e-03
 98 -7.48025470934233052e-04
 99  5.38778789325130604e-04
100  3.25219961714074681e-03
101 -6.24362769487288416e-01
102 -4.20197426005392838e-01
103 -6.08469649914441103e-04
104  6.45014422141877404e-04
105  1.03157921844088986e-03
106  5.65342453413656132e-02
107  3.41258249677047669e-03
108 -3.48476334953048408e-03
109 -5.19605896023566868e-03
110 -8.16250815145208447e-02
111 -4.09313766626698359e-03
112  2.87866504224047184e-03
113  8.33092146741948314e-03
114 -6.68940135636928124e-05
115  1.89756174840961366e-03
116  7.78545448102543848e-04
117  2.23777902766699463e-03
118 -1.03074279571396658e-03
119 -4.71755546263076669e-02
120 -5.46317666174644858e-03
121 -1.84079520915252310e-03
122  4.63042594447941620e-03
123 -1.57957872785175141e-03
124  4.70387841124813091e-03
125  1.46290493946037038e-02
126 -1.34806379685674924e-03
127  3.42847022803081155e-03
128  1.23738193517005449e-02
129 -1.21353991680910595e-04
130  6.77577660141127913e-04
131 -2.01589782454384640e-03
132  7.10518291578028042e-04
133  2.06497138145964108e-04
134 -1.68074901951324003e-03
135  7.36938004913435113e-03
136 -2.52603191192049374e-03
137 -1.02042962588224490e-03
138  1.81267530137320526e-02
139 -9.83079262423824408e-03
140  4.73874846915835635e-03
141  1.40513314006430394e-03
142  2.70815594970838860e-03
143 -5.85762012232952478e-04
144 -2.04791601962663728e-04
145 -3.52323150044951856e-03
146  3.18205653720460453e-03
147  5.59609988520174892e-02
148  3.37526698475733734e-03
149  7.93376028190122262e-03
150 -8.29975076107230744e-03
151 -9.25571916287621873e-04
152 -6.35983380823264104e-04
153  1.95738576942942021e-03
154 -5.86866205901185440e-04
155 -1.58100334193387996e-03
156 -1.25047034126733866e-03
 Sym= A
 Ene= -1.14665241635213206e+01
 Spin= Alpha
 Occup=  1.00000000000000000e+00
  1  4.13350534737282407e-03
  2  3.36672276794921024e-03
  3 -6.05081850056606163e-05
  4 -4.25467348377410264e-05
  5  1.46758095575147819e-04
  6  2.76292261758084043e-04
  7 -1.56144953631578233e-04
  8 -1.60459108845348285e-05
  9  1.35304492222085727e-04
 10  1.03101677821124723e-03
 11 -3.01983339539839250e-04
 12 -1.71939769404088748e-04
 13  5.95348211565396705e-04
 14  2.03290872038023741e-05
 15 -6.13682211654877378e-05
 16 -5.68678505543212319e-06
 17  4.29706459713197396e-05
 18  7.03883897236348278e-06
 19  5.42895782064137765e-03
 20 -1.06825248544879987e-03
 21 -1.40055273082929276e-04
 22  9.89672352874696593e-05
 23 -8.89326684499878954e-06
 24 -2.89088908144600374e-05
 25  2.49356045344484788e-06
 26 -2.15451282968342240e-05
 27 -1.35246879465625345e-05
 28  3.04928260257461271e-06
 29 -1.64496093689457615e-06
 30  2.67258348074200789e-06
 31 -2.06188908231553860e-05
 32 -1.84397434206281285e-05
 33  1.25865299971535450e-05
 34 -4.85687952546515799e-05
 35 -1.69458613634505530e-04
 36  2.66941593177771040e-04
 37  2.83288193848809606e-05
 38 -9.27125372284860110e-05
 39 -1.01335637463741178e-05
 40 -8.29877556943444898e-06
 41 -1.23929785993578381e-05
 42  4.57754154115257396e-06
 43  8.95699091981303024e-06
 44 -5.37220901554455021e-03
 45  5.80055572430759913e-04
 46  1.79474841572663143e-04
 47 -7.38359313090552029e-04
 48  4.48268233727743216e-06
 49 -5.20971965203409748e-05
 50  7.60276795523649230e-05
 51 -1.04529810890621714e-04
 52 -8.28218829123290482e-05
 53  4.47511654238153309e-06
 54 -2.12659154674003673e-06
 55 -1.42685758092969883e-06
 56 -3.94130628233567567e-05
 57 -4.22444382265161619e-05
 58  1.46515499680329125e-05
 59  6.55239860540444220e-06
 60  3.88146045328702238e-04
 61  1.97679123490195177e-04
 62  1.89953462897824091e-05
 63  1.90045906558081087e-04
 64  1.67929503630970780e-05
 65 -1.15463283494428120e-05
 66 -7.48581979404854937e-06
 67  6.56136587004352526e-06
 68 -4.26640227086426701e-06
 69  3.44012456848864518e-03
 70  7.49382643079350014e-04
 71  1.09098263149248016e-04
 72  3.69620201722869665e-04
 73 -7.47287779542980154e-06
 74  4.75687833759005888e-05
 75  1.50795739987745002e-05
 76 -6.52342429176301902e-04
 77 -5.39934591206206222e-04
 78  7.88535533675125904e-07
 79 -6.09366409257017469e-06
 80 -9.69762018074839602e-06
 81 -2.55439968163451236e-05
 82 -2.92745652336553194e-05
 83  2.87736669432400732e-05
 84  5.51000407993693602e-05
 85 -2.81053837712056157e-04
 86 -1.04900289226223851e-04
 87 -3.97240642657922401e-05
 88 -1.23203390142815155e-05
 89  1.59742795051441711e-05
 90  3.71619024478727158e-05
 91  1.45219479983936531e-05
 92  1.64364454212123670e-06
 93 -4.90088450145533606e-07
 94 -1.86776930913463719e-03
 95 -3.70256098453131729e-04
 96 -4.66989149392929069e-05
 97 -2.72207222851442816e-04
 98  3.40716684649311334e-06
 99  6.82970728824173302e-07
100  1.10696954867579759e-05
101 -1.42896384967170848e-04
102 -1.96752724651415035e-04
103  1.58338993006451102e-04
104 -6.80480816445755909e-05
105 -1.24495292184710489e-06
106  4.45700350462179559e-04
107  7.12153911031124004e-04
108 -2.31049142912565018e-04
109  1.02687295310305331e-05
110  1.36582175418552190e-03
111  4.04998817031854553e-04
112 -1.81548446566767876e-04
113 -2.85565153422555728e-05
114 -1.93883710073990356e-04
115 -3.03459405495214808e-05
116  2.52756978317657876e-06
117  2.33406807229737909e-04
118 -2.02702841047708147e-04
119  3.67429213069984072e-03
120  3.32965730923469381e-04
121 -3.78583837368419223e-04
122 -2.18839161017512525e-04
123  2.11671704982436218e-05
124 -9.88208457655092014e-05
125 -4.11010692735434048e-08
126  2.84520485357697311e-05
127 -9.76184601070680049e-05
128 -1.42349550529326555e-04
129  5.63340150946814111e-01
130  4.66529968259920158e-01
131 -1.23113142229219438e-03
132  5.08423343484942563e-04
133 -9.98163763426272222e-05
134  4.64963033100928170e-03
135  1.08147039094067519e-03
136 -4.59065065865805848e-04
137  1.05599254271176112e-04
138 -3.85692952846039723e-03
139 -2.19894945998396662e-04
140 -1.44680522087248153e-05
141  2.67376979162423935e-04
142  2.29284716682314659e-04
143  3.29887981645339472e-05
144  4.46586137963156114e-05
145 -3.48939314773127635e-04
146  3.00335115286729426e-04
147 -5.93190595878630503e-03
148  5.45288991746910399e-04
149 -3.32116167771580784e-04
150  5.97339858607810726e-04
151  3.30753098716886698e-04
152  1.68844442765932179e-04
153  1.03605350006612381e-03
154  3.38016916592316814e-04
155  1.43109473968121412e-04
156  1.00119258807462581e-03
 Sym= A
 Ene= -1.14638246933430104e+01
 Spin= Alpha
 Occup=  1.00000000000000000e+00
  1 -8.77880324563061910e-05
  2 -7.20322084648429128e-05
  3  1.39352441184957109e-06
  4  2.07923017334540734e-06
  5 -5.51772229848491780e-06
  6  2.23110321719393242e-05
  7  1.38467225276633666e-05
  8 -5.34872796086478075e-06
  9  5.02886033954645515e-05
 10 -3.84316534410303985e-04
 11  3.21366109043702140e-04
 12  7.17217929178401919e-05
 13  3.88394444436982600e-05
 14 -2.70823065342309072e-06
 15 -2.82430195316801067e-05
 16  1.38000430697896878e-06
 17 -7.30496706185328849e-06
 18  7.18211597481224610e-06
 19  2.01382511371374492e-03
 20 -3.22753514524785142e-04
 21  1.09541929643765018e-04
 22 -9.85921495272386317e-04
 23  5.58627028200621275e-06
 24 -5.04186983515082446e-05
 25 -1.07095980047627840e-04
 26  6.16798547693953909e-05
 27  5.22274824033505420e-05
 28 -1.10261945400458724e-05
 29 -2.90784863050783685e-06
 30 -1.40012080270020357e-05
 31 -6.68367117399370051e-06
 32  6.74569958330184901e-05
 33  1.30606158087049683e-05
 34  6.26095470073949968e-05
 35  5.59175328107739842e-04
 36 -1.50980438996666731e-04
 37 -7.09516646579019100e-05
 38  1.47102466649416430e-04
 39  4.48641244477170878e-05
 40 -5.17268327833646536e-06
 41 -4.20028474688370924e-06
 42 -2.07487841892068484e-05
 43 -1.07608671499687676e-05
 44 -4.69570524429216256e-03
 45 -7.79198284052267509e-05
 46  3.93327994650228849e-05
 47 -7.93275006717746121e-04
 48 -4.91683675226687933e-06
 49  5.42371798609663362e-07
 50  1.37265767037167121e-04
 51  1.88451167718382620e-02
 52  1.55929982798683284e-02
 53 -1.56360568008342076e-04
 54  8.98016720487765663e-06
 55  2.41368619251281462e-04
 56  1.85071973799650648e-04
 57  3.04964594474299014e-04
 58 -2.32673381164797008e-06
 59 -3.94623059378620001e-04
 60 -4.18516719610810572e-04
 61 -3.55817575895584718e-04
 62 -2.59316288213339007e-05
 63  4.07219744746674004e-05
 64 -1.38017118109056081e-04
 65  1.43673598615912297e-04
 66 -2.05844434092678276e-05
 67 -1.02401163110871541e-04
 68 -1.53093854815796353e-05
 69  5.87231799081159656e-04
 70  7.62027924958268805e-04
 71  8.47895921170085725e-05
 72  2.65697835990126206e-04
 73  4.46732478440479419e-06
 74 -3.54490703625594803e-05
 75  6.99152008087711250e-05
 76  5.63046952895785768e-01
 77  4.66303510776181207e-01
 78  6.22723274816306153e-04
 79  3.41398091669607641e-04
 80  1.50980833611409886e-03
 81  4.29440914206410864e-03
 82 -2.00790979093075828e-04
 83 -3.04560253635357723e-04
 84 -1.85936564128770694e-03
 85 -8.82512687414301164e-04
 86  1.77517417243980362e-04
 87  7.76148650739165593e-05
 88  5.80213309954591937e-04
 89  5.69821230137218328e-05
 90 -7.83583199698781405e-04
 91 -1.08541691619821326e-04
 92  2.25114831019504106e-04
 93 -5.61190368322711698e-05
 94 -3.19835682765042559e-04
 95  3.21255399082981559e-04
 96 -1.15729561880886148e-05
 97 -1.14689714127639642e-03
 98  3.45230116656852445e-04
 99 -1.37328250523361479e-04
100  5.59035602254120642e-04
101 -1.28870275018040491e-04
102 -1.99682961273090360e-04
103 -4.80407458735484383e-05
104 -4.11462410819669121e-05
105 -1.12551689961685374e-04
106  5.31604423803320970e-04
107 -4.70112444506602222e-04
108 -1.54482359201609784e-04
109 -6.93954309812916414e-04
110 -2.37807128048963551e-05
111  1.39935336739253256e-04
112  1.79693472433115227e-04
113  7.47987951490296661e-05
114  2.50247889850377999e-04
115  3.05126563058335382e-04
116  1.45081476538539534e-04
117 -6.68254281783100853e-06
118  8.95147185477927152e-05
119  2.98265959134555317e-03
120 -2.27315928309394945e-04
121 -4.77779515483220082e-04
122 -2.21167316030118719e-04
123  1.32941984042864727e-05
124 -5.15097957577785774e-05
125 -2.24390256480336411e-04
126  2.92772480484723950e-05
127  8.40790751094078485e-05
128 -2.96408563211257646e-04
129  6.60262688038010790e-04
130  5.38940228298892066e-04
131  1.21563356587645772e-05
132 -1.26215600452670519e-05
133 -1.17121113745045314e-06
134  6.21500853211783142e-06
135 -7.94561369884165341e-05
136  6.22349982161087445e-05
137  1.97432241619496264e-05
138  2.41657557313273866e-04
139 -6.20236254078269792e-05
140 -1.67186945285078398e-04
141 -1.18561055062036899e-04
142 -4.57057145174949046e-05
143 -5.26043613564555342e-06
144 -1.35589330909887097e-05
145  2.38765012436913758e-05
146 -4.78516336742209106e-05
147 -2.60977726529841244e-04
148  6.88995894724235103e-04
149  1.48188178247280703e-04
150 -1.27646423109560277e-04
151  2.05778605733004697e-05
152 -1.23145230080098542e-04
153 -7.14392430228746292e-05
154  1.12406362451479441e-05
155  3.44195941807921507e-05
156 -2.81721641535875301e-05
 Sym= A
 Ene= -1.14386667834139537e+01
 Spin= Alpha
 Occup=  1.00000000000000000e+00
  1  2.70226099814039342e-04
  2  2.13365236676704467e-04
  3  5.42879278730213221e-06
  4 -5.46863744418250884e-06
  5  6.86030558054867375e-06
  6  7.14682519629995783e-05
  7 -4.22179883582824838e-05
  8  1.85640591267708356e-05
  9 -7.12945080433316730e-05
 10 -3.28373827298219156e-04
 11  1.80258888170842111e-04
 12  1.14077357363073926e-05
 13  6.60847972641455844e-05
 14 -2.84872060982123872e-06
 15  4.13436744491073150e-05
 16  3.34963496915847371e-06
 17  8.73180952179992871e-06
 18 -9.91980998710508058e-06
 19  4.55704878276066538e-04
 20 -2.81161314732180747e-05
 21  1.55530827867605113e-04
 22 -9.96506899536311408e-04
 23  5.37392730037394032e-06
 24 -1.05943817176577205e-05
 25 -2.12522886781104984e-05
 26  9.07626506424764716e-03
 27  7.44284797008949901e-03
 28 -1.55484567439509718e-04
 29 -2.56437161560225035e-05
 30  7.05677439606538143e-06
 31  4.05145035586037898e-04
 32 -3.55414871548845595e-04
 33 -5.97908124779382622e-05
 34 -5.22330044801072433e-05
 35  2.74506837752026432e-04
 36 -2.93388215369052254e-05
 37 -2.11513836506515388e-05
 38  2.25799951981277850e-04
 39 -1.41387296791724694e-04
 40 -2.85325798133064715e-05
 41 -9.02106720193647522e-06
 42  8.78501342004762330e-05
 43  2.84489950667571885e-05
 44 -2.48192230294055037e-03
 45 -4.20381645859567703e-04
 46 -6.20666686021638934e-05
 47 -5.44746979645859366e-04
 48  1.18466222694701300e-05
 49  2.86560408683489761e-05
 50  8.04564451430777434e-05
 51  5.62959798385629595e-01
 52  4.66241267545186022e-01
 53  2.31287753247572602e-04
 54  1.96523762266858706e-05
 55  4.41854459701369976e-05
 56  4.27292767055301517e-03
 57 -4.11983506280146539e-04
 58 -7.76063991530417707e-06
 59  3.44324402346225420e-04
 60 -8.47819352466479053e-04
 61 -8.85246214506988386e-05
 62 -2.58476657807945074e-05
 63 -1.79291894638242952e-04
 64  3.93754024355959156e-04
 65 -2.11728772664876176e-04
 66  1.09874904729690605e-04
 67  3.16375553066108460e-04
 68  7.72157682081409108e-05
 69  1.34052147872057003e-03
 70  2.76617189936302198e-04
 71  7.59385648816365876e-05
 72  6.88531568085392351e-04
 73  4.00982554748297840e-04
 74 -1.81846116484931096e-04
 75  3.42354343031342706e-04
 76 -1.90926145443979685e-02
 77 -1.58712929398213583e-02
 78  1.28804173682977148e-04
 79 -1.68675939710904482e-05
 80 -2.76797876449415932e-04
 81  1.31543986233551745e-04
 82 -2.40411417084336048e-05
 83  1.21463445447659091e-05
 84  1.37930302546959385e-04
 85 -4.91671358377284543e-05
 86  1.76326137946011282e-04
 87  5.55310945253814482e-06
 88 -2.55170768685510207e-05
 89 -7.11819438375505502e-05
 90  1.12196654883275888e-05
 91 -3.38880238024516189e-05
 92 -1.04520853247444862e-04
 93 -3.62777753304942228e-05
 94 -1.77802525894908518e-03
 95 -2.03812222457424219e-04
 96  1.81339117539921508e-05
 97 -3.31312148754933720e-04
 98 -1.76122298414400529e-05
 99  2.69983689224257385e-05
100  9.26398793948019378e-05
101  1.13559658409018198e-05
102  8.65618339408727650e-06
103  1.10034152878715021e-06
104  4.83231449273751067e-06
105  2.16594431687883763e-05
106  2.03814869561355356e-06
107  2.05158830301175114e-05
108 -1.40204028083308706e-06
109 -1.35487928420106526e-06
110 -2.47609258758860131e-04
111 -7.98244248145965320e-05
112  1.19155768967900213e-04
113  8.43222718180097611e-05
114  3.21306898724034014e-06
115 -1.93713531426378414e-05
116 -4.00460620442008325e-06
117 -5.22764436728179033e-06
118  2.54522916668533894e-06
119  2.25201654138869464e-03
120  3.20040858292472270e-05
121 -3.90057253153805613e-04
122 -1.96672130830335799e-04
123 -2.63099771788616329e-06
124 -1.89805370037613944e-06
125 -1.40674694244133483e-04
126 -8.50774250209644328e-06
127  5.76133877590870181e-05
128 -1.71074870125505402e-04
129  8.30080594714708816e-05
130  6.95821078751908889e-05
131  5.04055109525241075e-07
132 -3.05150150190906092e-06
133  8.20969728852543301e-06
134 -2.91448594554872653e-05
135  1.00277835837037169e-05
136  1.10263085339005181e-05
137 -2.38717223938460113e-05
138  3.12379094395221510e-04
139 -8.54695798691498397e-05
140 -3.29358792458491243e-05
141 -2.88201178070680882e-05
142  5.09646276621244695e-06
143 -9.16569844501475483e-06
144 -4.85226370282859468e-06
145  1.99519280669295334e-06
146  1.74113014742497774e-06
147  4.83693966735758061e-04
148  6.76152807636457888e-04
149  1.69970948167882425e-04
150 -2.75101959020879454e-04
151  8.89144662800962935e-06
152 -6.80598312251402528e-05
153 -4.86469074175283531e-05
154  9.36272503196435973e-07
155 -2.11487730786429021e-06
156 -8.60694264045865044e-05
 Sym= A
 Ene= -1.14197182897722502e+01
 Spin= Alpha
 Occup=  1.00000000000000000e+00
  1  5.58466651102482947e-01
  2  4.62504729472180742e-01
  3 -1.72401392859494588e-04
  4 -9.89324137730877948e-05
  5  5.60148656009051339e-04
  6  4.25933458589316215e-03
  7 -1.25119678392017345e-04
  8  9.34818162555583787e-05
  9 -8.55725903792972534e-04
 10 -5.70405161921960172e-04
 11  3.73855047687406085e-05
 12  3.03266955461833837e-05
 13  1.71381200713867664e-04
 14  2.48614163697326665e-04
 15  4.25442835271105696e-04
 16 -4.72528530892607192e-05
 17  3.65298210652070180e-04
 18  4.02166317432021937e-05
 19 -8.93595891980402800e-04
 20 -1.93589355851050130e-04
 21 -1.04714781747157609e-04
 22 -6.29519630924298633e-04
 23  3.82761883958473114e-04
 24 -1.61621557775639075e-04
 25  3.69766360978190586e-04
 26  7.37165365474668349e-02
 27  6.10138262675983811e-02
 28  7.20637263396527888e-05
 29 -1.36055512673750248e-05
 30  2.30449502469824377e-04
 31  7.75372493206512065e-04
 32 -3.48191429660877122e-05
 33  9.43294271659385679e-06
 34 -1.38384942414063910e-04
 35 -4.73651754843243422e-04
 36  5.45272515848384807e-05
 37 -2.90799331907582194e-05
 38  1.35569813451430193e-05
 39 -4.59638343556146754e-05
 40 -2.20808178855172601e-06
 41  1.63135239792205517e-05
 42 -8.39397680196584469e-05
 43 -2.98139749310249156e-05
 44  6.60040724293688152e-04
 45 -3.22705335359728168e-04
 46  1.01490599612469549e-05
 47  4.48500238238622683e-04
 48  5.36949466824155488e-05
 49 -1.79793391242760091e-05
 50  1.22961015033997773e-04
 51 -1.46561973857668791e-03
 52 -1.22476452232792108e-03
 53  1.33448783551444075e-05
 54  2.54485633239643426e-06
 55 -1.12703882809661024e-05
 56  3.09205204525114528e-05
 57  4.41082599338170974e-05
 58  5.07724990059816834e-06
 59  3.49425055784198396e-05
 60  3.80609096788516561e-04
 61  1.01291324076063236e-05
 62  3.83377338351636313e-05
 63  1.59578594234127056e-04
 64  1.47135785905942521e-06
 65  2.87517402005448527e-05
 66  4.88577402651806684e-06
 67  5.92647234413912217e-06
 68 -2.10433607710748914e-06
 69 -3.82826102795599203e-03
 70  4.18763956756037679e-04
 71  3.50735000433897961e-06
 72 -8.11654146047462730e-04
 73 -3.69637798880543735e-06
 74  7.23003861589468217e-06
 75  9.50492242704600225e-05
 76  1.36241464028031791e-04
 77  1.10640499657850560e-04
 78 -3.90332161510314630e-06
 79  1.05612195546484666e-07
 80  1.38299501084017499e-06
 81  3.39138836769485900e-05
 82  2.48336807449384968e-06
 83 -1.72457295918273362e-06
 84  1.30078465634748360e-07
 85 -3.63859323725526488e-04
 86 -2.78505714799490015e-04
 87 -5.68499387780096180e-05
 88  1.02561403869600126e-04
 89  5.23688946750341011e-06