[Molden Format]
[Atoms] (AU)
C    1    6         2.688203947216       0.126267316038      -0.211284584910
H    2    1         4.728095907479       0.359456870713      -0.218011119477
C    3    6         1.369782617967       0.204435981782      -2.374855666231
H    4    1         2.318345438850       0.530982748944      -4.165937681460
C    5    6        -1.369782617967      -0.204435981782      -2.374855666231
H    6    1        -2.318345438850      -0.530982748944      -4.165937681460
C    7    6        -2.688203947216      -0.126267316038      -0.211284584910
H    8    1        -4.728095907290      -0.359456870902      -0.218011119477
C    9    6        -1.377448045575       0.458746757807       2.255586404767
H   10    1        -1.428727068278       2.518961490447       2.552818698465
H   11    1        -2.401900037590      -0.368832778254       3.849461186775
C   12    6         1.377448045575      -0.458746757807       2.255586404767
H   13    1         1.428727068278      -2.518961490069       2.552818698465
H   14    1         2.401900037401       0.368832778065       3.849461186397
[GTO]
  1 0
 s    6  1.00
     4563.2400000000         0.0019666500
      682.0240000000         0.0152306000
      154.9730000000         0.0761269000
       44.4553000000         0.2608010000
       13.0290000000         0.6164620000
        1.8277300000         0.2210060000
 s    3  1.00
       20.9642000000         0.1146600000
        4.8033100000         0.9199990000
        1.4593300000        -0.0030306800
 p    3  1.00
       20.9642000000         0.0402487000
        4.8033100000         0.2375940000
        1.4593300000         0.8158540000
 s    1  1.00
        0.4834560000         1.0000000000
 p    1  1.00
        0.4834560000         1.0000000000
 s    1  1.00
        0.1455850000         1.0000000000
 p    1  1.00
        0.1455850000         1.0000000000
 d    1  1.00
        0.6260000000         1.0000000000
 s    1  1.00
        0.0438000000         1.0000000000
 p    1  1.00
        0.0438000000         1.0000000000

  2 0
 s    3  1.00
       33.8650000000         0.0254938000
        5.0947900000         0.1903730000
        1.1587900000         0.8521610000
 s    1  1.00
        0.3258400000         1.0000000000
 s    1  1.00
        0.1027410000         1.0000000000

  3 0
 s    6  1.00
     4563.2400000000         0.0019666500
      682.0240000000         0.0152306000
      154.9730000000         0.0761269000
       44.4553000000         0.2608010000
       13.0290000000         0.6164620000
        1.8277300000         0.2210060000
 s    3  1.00
       20.9642000000         0.1146600000
        4.8033100000         0.9199990000
        1.4593300000        -0.0030306800
 p    3  1.00
       20.9642000000         0.0402487000
        4.8033100000         0.2375940000
        1.4593300000         0.8158540000
 s    1  1.00
        0.4834560000         1.0000000000
 p    1  1.00
        0.4834560000         1.0000000000
 s    1  1.00
        0.1455850000         1.0000000000
 p    1  1.00
        0.1455850000         1.0000000000
 d    1  1.00
        0.6260000000         1.0000000000
 s    1  1.00
        0.0438000000         1.0000000000
 p    1  1.00
        0.0438000000         1.0000000000

  4 0
 s    3  1.00
       33.8650000000         0.0254938000
        5.0947900000         0.1903730000
        1.1587900000         0.8521610000
 s    1  1.00
        0.3258400000         1.0000000000
 s    1  1.00
        0.1027410000         1.0000000000

  5 0
 s    6  1.00
     4563.2400000000         0.0019666500
      682.0240000000         0.0152306000
      154.9730000000         0.0761269000
       44.4553000000         0.2608010000
       13.0290000000         0.6164620000
        1.8277300000         0.2210060000
 s    3  1.00
       20.9642000000         0.1146600000
        4.8033100000         0.9199990000
        1.4593300000        -0.0030306800
 p    3  1.00
       20.9642000000         0.0402487000
        4.8033100000         0.2375940000
        1.4593300000         0.8158540000
 s    1  1.00
        0.4834560000         1.0000000000
 p    1  1.00
        0.4834560000         1.0000000000
 s    1  1.00
        0.1455850000         1.0000000000
 p    1  1.00
        0.1455850000         1.0000000000
 d    1  1.00
        0.6260000000         1.0000000000
 s    1  1.00
        0.0438000000         1.0000000000
 p    1  1.00
        0.0438000000         1.0000000000

  6 0
 s    3  1.00
       33.8650000000         0.0254938000
        5.0947900000         0.1903730000
        1.1587900000         0.8521610000
 s    1  1.00
        0.3258400000         1.0000000000
 s    1  1.00
        0.1027410000         1.0000000000

  7 0
 s    6  1.00
     4563.2400000000         0.0019666500
      682.0240000000         0.0152306000
      154.9730000000         0.0761269000
       44.4553000000         0.2608010000
       13.0290000000         0.6164620000
        1.8277300000         0.2210060000
 s    3  1.00
       20.9642000000         0.1146600000
        4.8033100000         0.9199990000
        1.4593300000        -0.0030306800
 p    3  1.00
       20.9642000000         0.0402487000
        4.8033100000         0.2375940000
        1.4593300000         0.8158540000
 s    1  1.00
        0.4834560000         1.0000000000
 p    1  1.00
        0.4834560000         1.0000000000
 s    1  1.00
        0.1455850000         1.0000000000
 p    1  1.00
        0.1455850000         1.0000000000
 d    1  1.00
        0.6260000000         1.0000000000
 s    1  1.00
        0.0438000000         1.0000000000
 p    1  1.00
        0.0438000000         1.0000000000

  8 0
 s    3  1.00
       33.8650000000         0.0254938000
        5.0947900000         0.1903730000
        1.1587900000         0.8521610000
 s    1  1.00
        0.3258400000         1.0000000000
 s    1  1.00
        0.1027410000         1.0000000000

  9 0
 s    6  1.00
     4563.2400000000         0.0019666500
      682.0240000000         0.0152306000
      154.9730000000         0.0761269000
       44.4553000000         0.2608010000
       13.0290000000         0.6164620000
        1.8277300000         0.2210060000
 s    3  1.00
       20.9642000000         0.1146600000
        4.8033100000         0.9199990000
        1.4593300000        -0.0030306800
 p    3  1.00
       20.9642000000         0.0402487000
        4.8033100000         0.2375940000
        1.4593300000         0.8158540000
 s    1  1.00
        0.4834560000         1.0000000000
 p    1  1.00
        0.4834560000         1.0000000000
 s    1  1.00
        0.1455850000         1.0000000000
 p    1  1.00
        0.1455850000         1.0000000000
 d    1  1.00
        0.6260000000         1.0000000000
 s    1  1.00
        0.0438000000         1.0000000000
 p    1  1.00
        0.0438000000         1.0000000000

  10 0
 s    3  1.00
       33.8650000000         0.0254938000
        5.0947900000         0.1903730000
        1.1587900000         0.8521610000
 s    1  1.00
        0.3258400000         1.0000000000
 s    1  1.00
        0.1027410000         1.0000000000

  11 0
 s    3  1.00
       33.8650000000         0.0254938000
        5.0947900000         0.1903730000
        1.1587900000         0.8521610000
 s    1  1.00
        0.3258400000         1.0000000000
 s    1  1.00
        0.1027410000         1.0000000000

  12 0
 s    6  1.00
     4563.2400000000         0.0019666500
      682.0240000000         0.0152306000
      154.9730000000         0.0761269000
       44.4553000000         0.2608010000
       13.0290000000         0.6164620000
        1.8277300000         0.2210060000
 s    3  1.00
       20.9642000000         0.1146600000
        4.8033100000         0.9199990000
        1.4593300000        -0.0030306800
 p    3  1.00
       20.9642000000         0.0402487000
        4.8033100000         0.2375940000
        1.4593300000         0.8158540000
 s    1  1.00
        0.4834560000         1.0000000000
 p    1  1.00
        0.4834560000         1.0000000000
 s    1  1.00
        0.1455850000         1.0000000000
 p    1  1.00
        0.1455850000         1.0000000000
 d    1  1.00
        0.6260000000         1.0000000000
 s    1  1.00
        0.0438000000         1.0000000000
 p    1  1.00
        0.0438000000         1.0000000000

  13 0
 s    3  1.00
       33.8650000000         0.0254938000
        5.0947900000         0.1903730000
        1.1587900000         0.8521610000
 s    1  1.00
        0.3258400000         1.0000000000
 s    1  1.00
        0.1027410000         1.0000000000

  14 0
 s    3  1.00
       33.8650000000         0.0254938000
        5.0947900000         0.1903730000
        1.1587900000         0.8521610000
 s    1  1.00
        0.3258400000         1.0000000000
 s    1  1.00
        0.1027410000         1.0000000000

[5D]
[9G]

[MO]
 Sym= A
 Ene= -1.25686966575302090e+01
 Spin= Alpha
 Occup=  1.00000000000000000e+00
  1 -3.86846662335643880e-05
  2  3.11152295030117014e-04
  3 -5.62948374882028704e-04
  4 -3.18638649423401768e-04
  5  1.82787498405886017e-03
  6 -5.48676132951110302e-04
  7  1.10440151244239242e-03
  8  1.09786821756402333e-03
  9 -7.26513809333723462e-03
 10  1.96975413030469476e-02
 11 -1.13848564618170452e-02
 12 -2.59221008367794105e-03
 13  1.01371482198940686e-02
 14 -1.46839610831242095e-03
 15  3.86903848373429610e-03
 16  1.08738478985139723e-03
 17  5.90894921188938224e-05
 18 -4.66601723611824784e-04
 19  5.27910011236220819e-02
 20 -1.08256482666489393e-02
 21 -2.33006149507253508e-03
 22 -7.72632060644745482e-03
 23 -5.75859817053113714e-04
 24  6.77210858315678327e-04
 25  3.49667664017814291e-03
 26 -5.99243300119189058e-05
 27  3.13150699021982491e-04
 28  3.10222787158825235e-04
 29 -5.92801623399112027e-05
 30  3.14330492035473923e-04
 31 -1.59826901799972653e-03
 32 -2.08029103493757471e-03
 33  3.72819929759596661e-04
 34 -3.20975999148131325e-03
 35 -9.44620479112835872e-03
 36  7.04256104219283790e-03
 37  7.06357552978707868e-04
 38 -4.91650516954754164e-03
 39 -1.01048176597051697e-03
 40 -1.34995856329796584e-03
 41 -1.19057671425828763e-04
 42  2.84247837766401124e-04
 43  3.63417673230141279e-04
 44 -7.26912054930511226e-02
 45  3.39357555962507959e-03
 46  3.22601651701635980e-03
 47 -1.06625028382006243e-02
 48 -1.13463563834562570e-04
 49 -1.72903717448747970e-03
 50  4.66498502513901779e-04
 51 -3.73033226774583464e-05
 52  2.27392262447817663e-04
 53  1.59346981968104176e-04
 54 -7.17879296296624974e-05
 55  9.57715058327771013e-05
 56 -1.74706922231001346e-03
 57 -9.17849477341741750e-04
 58  2.15644252884627895e-04
 59 -7.74346669419677652e-04
 60  1.05963575492488572e-02
 61  4.71157994525040619e-03
 62  7.79958864342947234e-04
 63  5.90226966340322550e-03
 64  2.34182641252771167e-04
 65 -1.35111288477628407e-05
 66  1.42830372322902577e-05
 67  7.09715560074524360e-05
 68 -1.14305853752713719e-04
 69  2.75698337876086191e-02
 70  1.14601031358948450e-02
 71 -2.44742468258663488e-05
 72  3.59238981865471225e-03
 73 -2.78391933812313403e-04
 74  1.01367810340930982e-03
 75  2.36099854977646524e-03
 76 -3.23822484090710867e-05
 77  1.92664488837857126e-04
 78  7.88991694037110343e-05
 79  3.58759133393757464e-05
 80  2.73168910058242643e-04
 81 -1.06217523393301451e-03
 82 -9.27237884487037349e-04
 83 -1.23599963100377722e-04
 84 -1.28196223594260724e-03
 85 -5.78149957086074306e-03
 86 -1.42948156052704841e-03
 87 -4.49534484007262406e-04
 88  1.29762866101362242e-03
 89 -5.61294930304465350e-04
 90 -3.98371566915382976e-04
 91 -2.99022795427339952e-05
 92  4.28341860736796342e-04
 93 -4.94087837154558933e-04
 94 -3.22499480501058991e-02
 95 -5.33439112943411963e-03
 96 -1.09531720268454274e-04
 97 -1.28028049696825973e-02
 98 -2.17139582829148614e-04
 99 -9.30629848339632656e-05
100  1.39131945547838224e-03
101 -4.93523137821282352e-05
102  3.71900212203650526e-04
103  1.42256664195504804e-03
104 -4.64746524109687763e-04
105  1.69723317248913000e-04
106 -1.22615475821656887e-03
107 -4.04373764002082317e-03
108  1.29671826237294941e-03
109 -7.87322201622519808e-04
110  1.72139783368538378e-02
111  7.88342164532338831e-03
112 -3.65393559773288150e-03
113  3.28887584049156786e-04
114  1.64059011617201335e-03
115  3.88258235466368783e-04
116  1.90194610393617136e-04
117 -2.24698181567833857e-03
118  1.72743516989605017e-03
119  4.68722901626041147e-02
120 -3.58613374928243647e-03
121 -6.68058802531967377e-03
122 -7.75203732641313679e-03
123 -5.54853365167032580e-04
124 -9.59117436656798609e-04
125  1.16981480440889207e-03
126 -3.02195573426743591e-04
127 -1.53042773877935519e-03
128 -1.54046548681217106e-03
129 -6.22295839195156963e-01
130 -4.20180481226292257e-01
131  2.29291373965096151e-04
132 -3.91875834910616362e-04
133  8.88439649577761896e-04
134  4.69234205790618961e-02
135 -1.33890622222982477e-03
136  1.99031004049074348e-03
137 -4.11034192580079713e-03
138 -6.74088243145913868e-02
139  3.23386343362321981e-03
140 -2.56533430477670762e-03
141  7.83763446677867084e-03
142  4.20545812143158042e-04
143 -1.49868729756583662e-03
144 -5.03361644509000661e-04
145  1.26184157340458757e-03
146 -3.01556711167503167e-04
147 -2.87102517238464194e-02
148  4.04856204243765876e-03
149  2.62795846092416701e-03
150  1.97758973558968994e-03
151 -9.83168971475506786e-04
152  3.62254374639487666e-03
153  1.06299220251271278e-02
154 -8.61846688535835540e-04
155  2.78305855536689975e-03
156  9.47264150089462652e-03
 Sym= A
 Ene= -1.04239459472620091e+01
 Spin= Alpha
 Occup=  1.00000000000000000e+00
  1 -1.57912814775188875e-04
  2 -6.67031343155045751e-05
  3 -3.03469361510639360e-05
  4 -6.01329186843534214e-06
  5  7.70915369338770777e-05
  6 -3.34056812964687053e-04
  7  3.19434672166711835e-04
  8  1.69454671818387482e-05
  9 -3.54612330716263862e-04
 10 -2.12994339063574990e-03
 11  5.78788019972816914e-04
 12  1.85798317392211511e-04
 13  3.44343828472703085e-04
 14 -1.58099257512503947e-04
 15  9.88355861382822634e-05
 16 -6.60815766659428600e-07
 17  1.25852494838235601e-04
 18 -1.52851102411282272e-04
 19 -1.12717238296581521e-02
 20  1.92311872710064285e-03
 21  4.40199696099468911e-05
 22 -4.12022276086793527e-03
 23 -6.27612575253457520e-05
 24 -3.32900080838086077e-05
 25  4.29503864570236716e-04
 26 -9.66410692833199244e-05
 27 -2.54151458472850265e-06
 28 -5.44535586619613660e-05
 29  2.36690673654385854e-05
 30  2.85125854737335683e-05
 31 -5.65204437164146386e-04
 32  3.18842480746683898e-04
 33 -7.63527557116434809e-05
 34 -2.27410018594214540e-04
 35  3.63420107079653974e-03
 36 -1.65060700074522388e-03
 37 -2.62329292594321820e-04
 38  1.99971224167633374e-03
 39  8.71458539905226189e-05
 40  1.25907182446493652e-05
 41 -3.25834810059997122e-07
 42  2.17972356816829928e-05
 43 -3.90780228249199606e-05
 44  1.11048290816618423e-02
 45 -4.09843283928174908e-03
 46 -5.50400853580461672e-05
 47  1.38536313097340955e-03
 48 -9.07190909463328994e-05
 49  3.52205617879097191e-04
 50  7.63201277843957721e-04
 51 -8.21415655867791645e-05
 52  4.18625826787487362e-05
 53 -9.82720331963296475e-05
 54  2.03902335917886660e-05
 55  1.06017236679869549e-04
 56 -5.02974268318181258e-04
 57  6.65065277660538932e-04
 58 -1.26618181382616690e-04
 59 -1.04723794727608539e-03
 60 -3.13122387161820104e-03
 61 -2.42876906930097674e-03
 62 -2.44058390092614854e-04
 63 -1.62841691623894641e-03
 64 -3.34281950356492687e-04
 65  4.25112714051885713e-04
 66  4.07094570567745071e-05
 67  9.27808254412966434e-05
 68  1.19183135697217867e-04
 69 -2.62906935502788611e-02
 70 -1.53202288678871219e-03
 71 -1.11487502949722756e-03
 72 -3.81511247116962096e-03
 73 -2.94959202295743361e-05
 74 -5.87121089242116753e-04
 75  1.83271521317419288e-04
 76  1.17671661618081553e-03
 77  1.03802334905174379e-03
 78  1.90711234611519676e-04
 79  1.16098860048962100e-04
 80  6.25662382887832579e-04
 81 -4.82354970132781776e-05
 82 -2.61955172804024096e-04
 83 -3.44821129021954237e-04
 84 -2.22640808230224578e-03
 85  6.87391675063748174e-03
 86  3.79376653748801120e-03
 87  9.24125340562796530e-04
 88  3.60356317020379827e-03
 89 -4.52217465540850048e-04
 90 -1.18078363491370378e-03
 91 -3.40710632380258872e-04
 92  4.86169199899899883e-05
 93 -1.42057804132033027e-04
 94  2.01979527190106756e-02
 95  4.14367691355644122e-03
 96  8.07737837224831666e-04
 97 -2.23655315350966425e-03
 98 -1.83279405589027510e-04
 99  1.94199603783410139e-04
100  1.13318512061122661e-03
101  5.63002251256599973e-01
102  4.63567632557522369e-01
103  9.15505676001400091e-04
104 -2.20370159327724441e-04
105  1.71236246673236753e-04
106  1.77933977328238839e-02
107 -3.42465257882736346e-04
108 -3.41811105957498551e-04
109 -1.17319805655428087e-03
110 -2.36492935531114785e-02
111 -8.10298450426357982e-04
112  8.21971148612015822e-04
113  2.65222382640616355e-03
114  2.37694440839681238e-04
115  4.32303709511855394e-04
116  1.25520988408179662e-04
117  2.10479092606308271e-04
118  3.86399589567357904e-05
119 -1.32598511575199290e-02
120 -1.65436826820712971e-03
121 -5.77131340685465232e-04
122  1.03888322678975949e-03
123 -1.42740357371144618e-04
124  1.13812358069298805e-03
125  4.02709541363228778e-03
126 -1.08609811110485543e-04
127  8.58976702857661514e-04
128  3.69702750843303642e-03
129 -5.20091561986158054e-05
130  2.79670875382399303e-05
131 -4.55859897958546306e-04
132  1.53814465371429328e-04
133  5.14831304237549613e-05
134 -2.89299467001798312e-04
135  8.60780102648594603e-04
136 -2.93854110877430795e-04
137 -2.29266963399149515e-04
138  6.43361081406703620e-03
139 -2.72805166948538380e-03
140  1.26019735173012420e-03
141  7.85279309439299380e-06
142  3.92799940803025265e-04
143 -9.99719171897884017e-05
144 -6.42850211705083382e-05
145 -5.47306585255527209e-04
146  4.21116792834831991e-04
147  1.70293004115312993e-02
148  8.11929966010967478e-04
149  2.31761394588479762e-03
150 -2.52397634844553874e-03
151 -1.48476061212950595e-04
152 -3.95003768055329242e-04
153  3.78007186182621865e-04
154 -6.93110003084215835e-05
155 -5.56966140334399585e-04
156 -5.62136059334232487e-04
 Sym= A
 Ene= -1.04056770617672232e+01
 Spin= Alpha
 Occup=  1.00000000000000000e+00
  1  5.62868816712189246e-01
  2  4.63318084946838515e-01
  3 -8.53333092390175084e-05
  4 -2.07748973173163532e-04
  5  1.47349870598707843e-03
  6  1.84852520408970364e-02
  7 -2.64547038138783540e-03
  8  7.89414325999116917e-05
  9 -3.88266551069415362e-03
 10 -1.33928342043836968e-02
 11  2.88835133770852471e-03
 12  5.35401399087361593e-04
 13  6.64854260304289396e-04
 14  1.59140083111457102e-03
 15  1.65311247229987649e-03
 16 -1.77048807602113618e-04
 17  6.18922385800502379e-04
 18 -2.90473597398136468e-05
 19  1.55934375724175543e-02
 20 -4.37574692780758230e-03
 21 -1.36853585310823308e-03
 22 -2.31065670674471734e-03
 23  2.53390749020509826e-04
 24 -8.03962642376854371e-04
 25  1.74637166237605898e-03
 26  9.15184563177582483e-03
 27  8.00269488738792473e-03
 28  6.16319229507175572e-04
 29 -1.05721822208972896e-05
 30  7.60390033405771749e-04
 31 -1.32883146298083828e-03
 32 -3.40211693325761155e-03
 33  6.69169648654075361e-05
 34 -4.32993571798156052e-03
 35  4.42739410532331482e-04
 36  6.15544745711100929e-04
 37 -3.72821183105219423e-04
 38  2.63950474587794142e-03
 39 -1.78966069806901122e-03
 40 -2.17171760735760354e-03
 41  9.14172764055956594e-05
 42 -2.89983913912411899e-04
 43  1.96429319872696120e-04
 44 -7.52562581848927308e-03
 45 -2.14467941671214963e-03
 46  4.59364759200803761e-04
 47 -2.68939452018823245e-04
 48 -2.85239061160683625e-04
 49  1.48985579152451824e-04
 50  1.56036715291811654e-03
 51 -6.44254453047389319e-05
 52  3.25848896200494730e-05
 53  2.23630967196937149e-04
 54  3.09858320493987022e-05
 55 -8.42310514139645982e-05
 56 -3.75202471529921273e-04
 57 -1.39562042422097170e-03
 58 -1.69624344281499767e-04
 59  4.12609215334368642e-04
 60  6.58094929788498382e-04
 61  7.18325692757658873e-04
 62  2.51718432139285135e-04
 63  1.12916914564834564e-04
 64  6.46588779110318060e-04
 65 -1.84332697305248668e-04
 66 -2.47536685290995293e-05
 67 -3.64224796805493996e-04
 68 -1.26103075058155839e-04
 69 -1.80155996286366811e-02
 70  2.33227563764254204e-03
 71 -6.47619167212693555e-05
 72 -3.61679095394729522e-03
 73 -8.78794573433371007e-05
 74 -7.05997079543830978e-05
 75  8.75872438266961438e-04
 76 -1.02642905193583498e-04
 77 -1.11680235315581248e-05
 78  2.26433708259609414e-05
 79  3.15590776585301770e-07
 80 -4.36129749422205375e-05
 81 -3.50334520442704880e-04
 82 -3.60301572980287720e-04
 83  6.30262175745116242e-06
 84  4.69651973743033220e-04
 85 -5.47122181568902963e-04
 86 -6.05152538128155395e-04
 87 -2.89821864685010661e-04
 88 -5.89967745041098895e-05
 89 -1.04482673999828829e-04
 90  2.45438490394130310e-04
 91 -4.99213519633053755e-05
 92  1.43348472103348274e-05
 93  1.39144704828401760e-05
 94  7.53828452613781921e-03
 95  1.22418762935928068e-03
 96 -6.72611526368634702e-04
 97 -6.22618402202470157e-03
 98 -3.32964408763871430e-05
 99 -1.82480375670818537e-04
100  6.12939803318788233e-05
101  1.48146543129559923e-04
102  1.80779924237763171e-04
103  5.25531897361177438e-05
104  1.02899612112173569e-05
105  8.51351650144190845e-06
106 -3.80652589258632056e-04
107 -3.04925726127865896e-04
108  2.68388244259376574e-06
109  6.44400823033449929e-05
110  6.47641655964175354e-04
111  5.58044926450377188e-04
112  9.00649247760877463e-04
113 -4.67120636612532072e-04
114  8.17132668837855741e-05
115 -9.65312822655695616e-05
116 -3.40382460282544184e-05
117 -6.61166256848055362e-05
118  3.51183794183732980e-05
119 -1.26236563620389978e-03
120 -4.60408807150247505e-03
121 -5.49200653416582465e-04
122 -1.60342102270842786e-03
123  1.03858547831749021e-04
124 -6.74550558928143241e-04
125 -9.57191143580388631e-05
126 -7.78681224840814648e-05
127  1.96976229414100231e-04
128  4.33581554190166679e-04
129 -5.42535627763764889e-05
130  7.21625729474388481e-07
131  2.28672293233899560e-04
132  9.74866921525028283e-05
133 -3.89287720379465757e-04
134  1.05492228032727940e-04
135 -4.12767390585346483e-04
136 -1.57035447343139043e-04
137  6.46030724604731380e-04
138  2.18801624733665386e-03
139  1.32821621341994086e-04
140 -4.15843552209592339e-04
141 -1.44868698215569599e-03
142 -4.60945740219012047e-04
143  5.06524873228376710e-04
144  2.29693794039631814e-04
145 -2.24833413669843301e-04
146 -1.94798346066591495e-04
147  4.21667480397480438e-03
148 -1.63752045328429590e-03
149  1.99866176315641533e-03
150  1.77159326801042561e-03
151 -1.47973017030168997e-04
152 -3.84972536262777484e-04
153 -1.87019211436652765e-04
154 -1.31069791022412734e-04
155  1.47835432645516143e-04
156 -4.32966605534043387e-04
 Sym= A
 Ene= -1.03817769137531641e+01
 Spin= Alpha
 Occup=  1.00000000000000000e+00
  1  9.37971926169621668e-03
  2  7.28216140955564775e-03
  3  3.99518762946281963e-04
  4 -4.92181217706165483e-05
  5  8.28657548565931508e-04
  6  1.74395705339826170e-03
  7 -2.19794512450484066e-03
  8  2.28791247159691556e-04
  9 -4.31250541913074433e-03
 10 -2.19028052171818663e-03
 11  2.85234571600787067e-03
 12  9.97686676039252914e-05
 13  1.12022392535712973e-03
 14  1.41096095120305876e-03
 15  2.10240537199617161e-03
 16 -5.94044986633712386e-05
 17  5.14436719658194208e-04
 18 -1.23494878148927957e-04
 19  1.58865945160689970e-02
 20 -1.93373155793130570e-03
 21  1.90154088374920767e-04
 22 -1.53002477274179834e-03
 23  2.82436782790573685e-04
 24 -2.03211740269405795e-04
 25 -1.66199086506987458e-03
 26 -5.62954970380895925e-01
 27 -4.63169094603097409e-01
 28  1.12535066396474506e-04
 29 -4.69809582581635752e-05
 30  3.99901358394765558e-04
 31 -1.85381499110656850e-02
 32 -7.73586100554151204e-04
 33  3.49061907824906026e-04
 34 -3.73859033921012827e-03
 35  1.46551012117198069e-02
 36 -2.14580818544633312e-03
 37 -6.17091733374413773e-04
 38  3.79614059925782255e-03
 39 -9.22158222251747567e-04
 40 -1.70640517715151376e-03
 41  1.07585925979379173e-04
 42 -1.14392865973399248e-03
 43 -1.35845126155348427e-04
 44 -2.58298986627912494e-02
 45  2.44122438350114108e-03
 46  9.15042325167827260e-04
 47 -5.82520358937838826e-03
 48 -3.35867162180189744e-04
 49  1.01576569471904864e-03
 50 -1.11245884442973337e-03
 51 -4.51569209069747467e-03
 52 -3.79959893697803374e-03
 53 -6.30754425011209791e-04
 54 -7.59217438656222367e-05
 55  8.57720388585449538e-05
 56 -1.62697009615024140e-04
 57  2.01848744096014840e-03
 58  2.03042862644233537e-04
 59 -5.85031022949157728e-04
 60 -4.46133025397909763e-03
 61 -2.70297447609584842e-03
 62 -5.03173704854282568e-04
 63 -2.60223139694181621e-03
 64 -8.09246083126206233e-04
 65  1.92972038860061973e-04
 66 -9.14812583369399617e-05
 67  8.99196991787341924e-04
 68  3.45246172666726031e-04
 69  1.89098881613029707e-02
 70  1.16876972949449308e-03
 71 -8.77178285003529860e-05
 72  2.23077382930166176e-03
 73  1.73989642287415681e-04
 74 -3.56325442585235931e-04
 75 -1.63211502867596867e-03
 76  1.24751141240385339e-04
 77  1.53127346061827841e-05
 78 -4.93479584087269879e-05
 79 -1.20122140808604468e-05
 80  1.00958732303439898e-04
 81  3.78948553544515554e-04
 82  5.46634577795627801e-04
 83  4.19123812904426205e-05
 84 -8.06354658538842610e-04
 85  3.27898382796394747e-03
 86  1.50204496668227515e-03
 87  1.73502410213458383e-04
 88  4.29473488272255892e-04
 89  1.61246663333491929e-04
 90 -4.22988034625033644e-04
 91 -3.68647430929342973e-05
 92 -1.89900121950788390e-05
 93 -3.86548787330150497e-05
 94 -5.09017178678398442e-03
 95 -1.11594415902494339e-03
 96  4.33771656811131150e-04
 97  2.94937555018094481e-03
 98  5.63955435137422029e-05
 99  2.05104747320742134e-04
100 -2.67419117300870645e-04
101 -8.10034017396353838e-05
102 -1.39543567220997577e-04
103 -6.36295235859784356e-06
104  1.77605852009461048e-05
105  1.11448961343704994e-05
106  5.30235040668792981e-04
107  9.16640663340942727e-05
108 -1.01595841492220474e-04
109 -1.54785343577423947e-04
110 -2.99015198060820914e-03
111 -4.93833401954132142e-04
112  1.20210412627432510e-04
113  8.42223855503042448e-04
114 -2.18569174399098245e-05
115  8.65335811594028482e-05
116  8.73318596334456590e-06
117  6.24724243547588341e-06
118 -2.92144346115162654e-05
119  4.65145858113964229e-03
120  2.97261520482896852e-03
121  8.69184945970573715e-05
122 -4.69616911779863048e-05
123 -7.14051362043365310e-05
124  5.48338147437956152e-04
125 -3.77413530322159776e-04
126  1.59645924910439640e-05
127  1.85442921116153910e-04
128 -2.37669281740531273e-04
129  1.16980965550529380e-05
130 -7.58909224765414635e-05
131 -7.01667771684734887e-05
132 -8.30019181807183467e-06
133  1.11277236979716190e-04
134  2.85394833152231354e-04
135  3.31087456703071286e-04
136  1.01475906891215309e-04
137 -6.88679395764739974e-04
138  1.86531914800454660e-03
139 -6.61279796908868507e-04
140  7.14271058936325051e-04
141 -2.04665914353806651e-04
142  2.51628744760353754e-04
143 -3.46681415637176474e-04
144 -1.45428322558690089e-04
145 -5.99511926736495933e-05
146  1.27400193021129526e-05
147 -8.69300989195294187e-03
148  1.29109384879658954e-03
149 -1.28937722192122681e-03
150  5.36411305348909011e-04
151 -4.06896283858158918e-05
152  1.91471623224558275e-04
153  4.48335639634322189e-04
154  1.12963625394125683e-04
155 -2.09262188704435585e-04
156  6.73363976189021935e-05
 Sym= A
 Ene= -1.03669397116077917e+01
 Spin= Alpha
 Occup=  1.00000000000000000e+00
  1  9.19091975375376549e-05
  2  1.52719289181749103e-04
  3 -2.46362040069678224e-05
  4 -1.84398092165314158e-06
  5 -4.45682570206986465e-05
  6 -3.63644326223583781e-04
  7  3.84552748881537864e-04
  8 -1.07281709411780353e-06
  9  4.82786619328158387e-04
 10 -6.87252449796479968e-04
 11  6.48976183719834920e-04
 12  2.99783611477891839e-04
 13 -4.41732825627180818e-05
 14 -1.07420016217948599e-04
 15 -2.57571029123937912e-04
 16  4.88685196828096506e-05
 17  1.89004800218784663e-05
 18  1.10783109807463232e-05
 19  7.35631574995058730e-03
 20 -1.19588731884975961e-03
 21  7.13851621806147309e-04
 22 -6.52553244868507663e-03
 23 -3.58661316357619341e-05
 24 -1.90774837482873632e-04
 25  1.02790693408589279e-04
 26 -2.23106637747207760e-04
 27 -9.52207825988141761e-05
 28 -2.53495082568023665e-04
 29 -3.43298931553924011e-05
 30 -8.78766973401848880e-05
 31 -3.70781491445883486e-04
 32  1.47600008466615721e-03
 33  1.76977697299874020e-04
 34  4.31426328760750339e-04
 35  7.00870206974394251e-04
 36 -7.50044837554981916e-04
 37 -2.60411941973452471e-04
 38  2.22928957057484808e-04
 39  6.78272502482116192e-04
 40  1.81908563933432470e-04
 41  2.04929831546010891e-05
 42 -4.06844147433510180e-04
 43 -1.43302124478786021e-04
 44 -1.82983777221533139e-02
 45 -2.50181592344457136e-03
 46  4.28404797065432631e-05
 47 -3.71582140679461341e-03
 48 -9.71159647462587860e-05
 49 -5.15528182226153371e-05
 50  9.30256899159829891e-04
 51  4.04082388561124300e-02
 52  3.37012527430883557e-02
 53 -5.81531826677772067e-04
 54  9.50717818185673460e-06
 55  7.32392221601056519e-04
 56 -2.20639839673555444e-04
 57  3.22648296709395150e-03
 58 -5.13944165618192823e-05
 59 -3.99032235529312666e-03
 60 -1.78579805844772394e-04
 61 -4.89228430865506440e-04
 62  3.91644222642771481e-04
 63  2.52786798417519451e-03
 64 -1.70825907421764305e-03
 65  2.00863557659332077e-03
 66 -8.58918101107517505e-05
 67 -2.15108358828095263e-04
 68  1.98482869655183954e-04
 69 -6.50755680689270484e-03
 70  1.99373406219020572e-03
 71 -4.85655751563273568e-04
 72  5.83191165606364160e-05
 73 -2.62007293004376106e-04
 74  1.27477888328331738e-04
 75  1.67255527823140086e-03
 76  5.61459610175499724e-01
 77  4.62169761967242521e-01
 78 -2.29163359388174495e-04
 79  4.73539099789222981e-05
 80  7.06624184931969467e-04
 81  1.84833440949569230e-02
 82  2.73946998785564409e-03
 83  5.10184236307332337e-05
 84 -3.00333484810863137e-03
 85 -1.33560157112617602e-02
 86 -3.04774022753328102e-03
 87 -6.22075720154252566e-04
 88  2.81038570717123193e-04
 89  1.55076884138013039e-03