[Molden Format]
[Atoms] (AU)
C    1    6         2.688203947216       0.126267316038      -0.211284584910
H    2    1         4.728095907479       0.359456870713      -0.218011119477
C    3    6         1.369782617967       0.204435981782      -2.374855666231
H    4    1         2.318345438850       0.530982748944      -4.165937681460
C    5    6        -1.369782617967      -0.204435981782      -2.374855666231
H    6    1        -2.318345438850      -0.530982748944      -4.165937681460
C    7    6        -2.688203947216      -0.126267316038      -0.211284584910
H    8    1        -4.728095907290      -0.359456870902      -0.218011119477
C    9    6        -1.377448045575       0.458746757807       2.255586404767
H   10    1        -1.428727068278       2.518961490447       2.552818698465
H   11    1        -2.401900037590      -0.368832778254       3.849461186775
C   12    6         1.377448045575      -0.458746757807       2.255586404767
H   13    1         1.428727068278      -2.518961490069       2.552818698465
H   14    1         2.401900037401       0.368832778065       3.849461186397
[GTO]
  1 0
 s    6  1.00
     4563.2400000000         0.0019666500
      682.0240000000         0.0152306000
      154.9730000000         0.0761269000
       44.4553000000         0.2608010000
       13.0290000000         0.6164620000
        1.8277300000         0.2210060000
 s    3  1.00
       20.9642000000         0.1146600000
        4.8033100000         0.9199990000
        1.4593300000        -0.0030306800
 p    3  1.00
       20.9642000000         0.0402487000
        4.8033100000         0.2375940000
        1.4593300000         0.8158540000
 s    1  1.00
        0.4834560000         1.0000000000
 p    1  1.00
        0.4834560000         1.0000000000
 s    1  1.00
        0.1455850000         1.0000000000
 p    1  1.00
        0.1455850000         1.0000000000
 d    1  1.00
        0.6260000000         1.0000000000
 s    1  1.00
        0.0438000000         1.0000000000
 p    1  1.00
        0.0438000000         1.0000000000

  2 0
 s    3  1.00
       33.8650000000         0.0254938000
        5.0947900000         0.1903730000
        1.1587900000         0.8521610000
 s    1  1.00
        0.3258400000         1.0000000000
 s    1  1.00
        0.1027410000         1.0000000000

  3 0
 s    6  1.00
     4563.2400000000         0.0019666500
      682.0240000000         0.0152306000
      154.9730000000         0.0761269000
       44.4553000000         0.2608010000
       13.0290000000         0.6164620000
        1.8277300000         0.2210060000
 s    3  1.00
       20.9642000000         0.1146600000
        4.8033100000         0.9199990000
        1.4593300000        -0.0030306800
 p    3  1.00
       20.9642000000         0.0402487000
        4.8033100000         0.2375940000
        1.4593300000         0.8158540000
 s    1  1.00
        0.4834560000         1.0000000000
 p    1  1.00
        0.4834560000         1.0000000000
 s    1  1.00
        0.1455850000         1.0000000000
 p    1  1.00
        0.1455850000         1.0000000000
 d    1  1.00
        0.6260000000         1.0000000000
 s    1  1.00
        0.0438000000         1.0000000000
 p    1  1.00
        0.0438000000         1.0000000000

  4 0
 s    3  1.00
       33.8650000000         0.0254938000
        5.0947900000         0.1903730000
        1.1587900000         0.8521610000
 s    1  1.00
        0.3258400000         1.0000000000
 s    1  1.00
        0.1027410000         1.0000000000

  5 0
 s    6  1.00
     4563.2400000000         0.0019666500
      682.0240000000         0.0152306000
      154.9730000000         0.0761269000
       44.4553000000         0.2608010000
       13.0290000000         0.6164620000
        1.8277300000         0.2210060000
 s    3  1.00
       20.9642000000         0.1146600000
        4.8033100000         0.9199990000
        1.4593300000        -0.0030306800
 p    3  1.00
       20.9642000000         0.0402487000
        4.8033100000         0.2375940000
        1.4593300000         0.8158540000
 s    1  1.00
        0.4834560000         1.0000000000
 p    1  1.00
        0.4834560000         1.0000000000
 s    1  1.00
        0.1455850000         1.0000000000
 p    1  1.00
        0.1455850000         1.0000000000
 d    1  1.00
        0.6260000000         1.0000000000
 s    1  1.00
        0.0438000000         1.0000000000
 p    1  1.00
        0.0438000000         1.0000000000

  6 0
 s    3  1.00
       33.8650000000         0.0254938000
        5.0947900000         0.1903730000
        1.1587900000         0.8521610000
 s    1  1.00
        0.3258400000         1.0000000000
 s    1  1.00
        0.1027410000         1.0000000000

  7 0
 s    6  1.00
     4563.2400000000         0.0019666500
      682.0240000000         0.0152306000
      154.9730000000         0.0761269000
       44.4553000000         0.2608010000
       13.0290000000         0.6164620000
        1.8277300000         0.2210060000
 s    3  1.00
       20.9642000000         0.1146600000
        4.8033100000         0.9199990000
        1.4593300000        -0.0030306800
 p    3  1.00
       20.9642000000         0.0402487000
        4.8033100000         0.2375940000
        1.4593300000         0.8158540000
 s    1  1.00
        0.4834560000         1.0000000000
 p    1  1.00
        0.4834560000         1.0000000000
 s    1  1.00
        0.1455850000         1.0000000000
 p    1  1.00
        0.1455850000         1.0000000000
 d    1  1.00
        0.6260000000         1.0000000000
 s    1  1.00
        0.0438000000         1.0000000000
 p    1  1.00
        0.0438000000         1.0000000000

  8 0
 s    3  1.00
       33.8650000000         0.0254938000
        5.0947900000         0.1903730000
        1.1587900000         0.8521610000
 s    1  1.00
        0.3258400000         1.0000000000
 s    1  1.00
        0.1027410000         1.0000000000

  9 0
 s    6  1.00
     4563.2400000000         0.0019666500
      682.0240000000         0.0152306000
      154.9730000000         0.0761269000
       44.4553000000         0.2608010000
       13.0290000000         0.6164620000
        1.8277300000         0.2210060000
 s    3  1.00
       20.9642000000         0.1146600000
        4.8033100000         0.9199990000
        1.4593300000        -0.0030306800
 p    3  1.00
       20.9642000000         0.0402487000
        4.8033100000         0.2375940000
        1.4593300000         0.8158540000
 s    1  1.00
        0.4834560000         1.0000000000
 p    1  1.00
        0.4834560000         1.0000000000
 s    1  1.00
        0.1455850000         1.0000000000
 p    1  1.00
        0.1455850000         1.0000000000
 d    1  1.00
        0.6260000000         1.0000000000
 s    1  1.00
        0.0438000000         1.0000000000
 p    1  1.00
        0.0438000000         1.0000000000

  10 0
 s    3  1.00
       33.8650000000         0.0254938000
        5.0947900000         0.1903730000
        1.1587900000         0.8521610000
 s    1  1.00
        0.3258400000         1.0000000000
 s    1  1.00
        0.1027410000         1.0000000000

  11 0
 s    3  1.00
       33.8650000000         0.0254938000
        5.0947900000         0.1903730000
        1.1587900000         0.8521610000
 s    1  1.00
        0.3258400000         1.0000000000
 s    1  1.00
        0.1027410000         1.0000000000

  12 0
 s    6  1.00
     4563.2400000000         0.0019666500
      682.0240000000         0.0152306000
      154.9730000000         0.0761269000
       44.4553000000         0.2608010000
       13.0290000000         0.6164620000
        1.8277300000         0.2210060000
 s    3  1.00
       20.9642000000         0.1146600000
        4.8033100000         0.9199990000
        1.4593300000        -0.0030306800
 p    3  1.00
       20.9642000000         0.0402487000
        4.8033100000         0.2375940000
        1.4593300000         0.8158540000
 s    1  1.00
        0.4834560000         1.0000000000
 p    1  1.00
        0.4834560000         1.0000000000
 s    1  1.00
        0.1455850000         1.0000000000
 p    1  1.00
        0.1455850000         1.0000000000
 d    1  1.00
        0.6260000000         1.0000000000
 s    1  1.00
        0.0438000000         1.0000000000
 p    1  1.00
        0.0438000000         1.0000000000

  13 0
 s    3  1.00
       33.8650000000         0.0254938000
        5.0947900000         0.1903730000
        1.1587900000         0.8521610000
 s    1  1.00
        0.3258400000         1.0000000000
 s    1  1.00
        0.1027410000         1.0000000000

  14 0
 s    3  1.00
       33.8650000000         0.0254938000
        5.0947900000         0.1903730000
        1.1587900000         0.8521610000
 s    1  1.00
        0.3258400000         1.0000000000
 s    1  1.00
        0.1027410000         1.0000000000

[5D]
[9G]

[MO]
 Sym= A
 Ene= -1.37576542592423259e+01
 Spin= Alpha
 Occup=  1.00000000000000000e+00
  1 -6.20214351170509455e-05
  2  4.15167643280430474e-04
  3 -6.78038262343631033e-04
  4 -3.87796344007336328e-04
  5  2.24338166283058991e-03
  6 -7.73004068040961958e-04
  7  1.44111818184801312e-03
  8  1.40207411346002057e-03
  9 -9.24660103055543504e-03
 10  2.41418659709886699e-02
 11 -1.40209947811123711e-02
 12 -3.18653992365621266e-03
 13  1.24286344328792646e-02
 14 -1.87056018335051062e-03
 15  4.90799341059763340e-03
 16  1.37591066150251850e-03
 17  7.30415941849389840e-05
 18 -5.95136115422755462e-04
 19  6.48929967406746133e-02
 20 -1.33037741699489568e-02
 21 -2.84393202073364697e-03
 22 -9.38681701834923055e-03
 23 -7.17790538104640975e-04
 24  8.51350220759869544e-04
 25  4.32824047692215164e-03
 26 -7.53917027816503494e-05
 27  4.05855906228783092e-04
 28  3.90358524735491866e-04
 29 -7.28193881777749395e-05
 30  4.00019740332618228e-04
 31 -2.00354964131095039e-03
 32 -2.61934828775294481e-03
 33  4.57903833791751473e-04
 34 -4.03139768337168469e-03
 35 -1.17356570257803397e-02
 36  8.69306563341775036e-03
 37  8.83285954624265525e-04
 38 -6.08765645130756369e-03
 39 -1.28462808489009724e-03
 40 -1.69490802140319428e-03
 41 -1.42393188454839452e-04
 42  3.57454541974706972e-04
 43  4.54027649101921703e-04
 44 -8.88754592663622001e-02
 45  4.14143833347523430e-03
 46  3.92859278354671087e-03
 47 -1.30617727690393783e-02
 48 -1.44194444635912340e-04
 49 -2.13879804510426182e-03
 50  5.59191221202959168e-04
 51 -4.65995486497635796e-05
 52  2.93584431707678286e-04
 53  2.01324122659105216e-04
 54 -8.87423554902693000e-05
 55  1.17459955712385643e-04
 56 -2.16775762868049240e-03
 57 -1.15327511423336435e-03
 58  2.60910309728291619e-04
 59 -9.52644781650182834e-04
 60  1.31349360964441129e-02
 61  5.85213154499815685e-03
 62  9.71484938200453522e-04
 63  7.32784758937042591e-03
 64  2.95528303065000538e-04
 65 -1.29012647222546632e-05
 66  1.99674087958379302e-05
 67  7.80562441010040578e-05
 68 -1.43606942427971363e-04
 69  3.37545413354234589e-02
 70  1.39662247465377719e-02
 71 -1.87421563279383138e-05
 72  4.42818879303340934e-03
 73 -3.46981909240760107e-04
 74  1.25934008498698171e-03
 75  2.93521676078998053e-03
 76 -4.02745749406294081e-05
 77  2.48065104951110740e-04
 78  1.02288465494207830e-04
 79  4.70319903251477649e-05
 80  3.45665841015206578e-04
 81 -1.29980338977774327e-03
 82 -1.15090764988772247e-03
 83 -1.64432749670479937e-04
 84 -1.60648807262548060e-03
 85 -7.24186536142311550e-03
 86 -1.85420018184260897e-03
 87 -5.62566567557144532e-04
 88  1.56915229800172733e-03
 89 -7.04488102178549009e-04
 90 -5.07913688104743568e-04
 91 -4.13341421615296060e-05
 92  5.24205542080513859e-04
 93 -6.12625644963297827e-04
 94 -3.92256628143718283e-02
 95 -6.49153231540863882e-03
 96 -1.32821677997684343e-04
 97 -1.55474795311106567e-02
 98 -2.70201459543524189e-04
 99 -1.29877578034691540e-04
100  1.67560233281032617e-03
101 -7.59749554568583404e-05
102  4.89573623771926781e-04
103  1.72875013031055817e-03
104 -5.60823401526536745e-04
105  2.13169306349045691e-04
106 -1.61856095340139191e-03
107 -5.19129026238212415e-03
108  1.65181207293857652e-03
109 -9.83014901703697323e-04
110  2.11577745656820922e-02
111  9.66372877768926185e-03
112 -4.48700710470552929e-03
113  3.45380900931579831e-04
114  2.08687312746031091e-03
115  4.95894441080131057e-04
116  2.40482131653193073e-04
117 -2.84420491747593932e-03
118  2.18398485533639105e-03
119  5.70043951134355867e-02
120 -4.33659130891211192e-03
121 -8.12828029179551992e-03
122 -9.40241857193158462e-03
123 -6.86165800602697609e-04
124 -1.19013334993722732e-03
125  1.48136601398709752e-03
126 -3.75534337788830069e-04
127 -1.88495353188380347e-03
128 -1.82241861924537776e-03
129 -6.24514720183514283e-01
130 -4.19880557911563423e-01
131  2.72484617079591230e-04
132 -5.02746622238617606e-04
133  1.11399006587006963e-03
134  5.58149326546646327e-02
135 -1.65134601100341318e-03
136  2.51842517580650599e-03
137 -5.18370771337206028e-03
138 -8.25655574423193594e-02
139  3.94483857192481479e-03
140 -3.14458826113292456e-03
141  9.58656991142616335e-03
142  5.51935497789720502e-04
143 -1.89885040563347895e-03
144 -6.46827763506619682e-04
145  1.59171715489194875e-03
146 -3.81285365458941517e-04
147 -3.55120886052636697e-02
148  4.93625896225398896e-03
149  3.16429013496822512e-03
150  2.49075460512896080e-03
151 -1.35649322277888286e-03
152  4.37830133463412794e-03
153  1.30496638035001930e-02
154 -1.21254397049357543e-03
155  3.35753334952991088e-03
156  1.16507364995992631e-02
 Sym= A
 Ene= -1.14819287380566042e+01
 Spin= Alpha
 Occup=  1.00000000000000000e+00
  1 -8.56952024264357874e-05
  2 -7.34996588009392528e-05
  3 -2.50135122144978452e-06
  4  6.97894112896860876e-06
  5 -1.28390633047782847e-05
  6  1.84856073732232394e-06
  7  2.65734349201420669e-05
  8 -3.06565243357243607e-05
  9  7.36633439273234858e-05
 10 -3.34875120882478447e-04
 11  1.50767055716785652e-04
 12  5.27038668719444529e-05
 13 -6.35752814063917060e-05
 14  2.31569008939053434e-05
 15 -4.20019870707646423e-05
 16 -1.36009949450779352e-05
 17 -7.13316796530042173e-06
 18  3.70450456494624835e-06
 19 -1.39439955620333398e-03
 20  3.09968107238687857e-04
 21  2.12750203222882710e-05
 22 -2.44583285885754129e-04
 23  6.40058154089955378e-06
 24 -3.81710523546513193e-06
 25 -1.50498760479061141e-05
 26 -4.83507426242450668e-05
 27 -3.93369082132657603e-05
 28 -4.90690030594085977e-06
 29  1.63212087740872245e-06
 30 -3.18201668964626122e-06
 31 -1.65618981114799333e-05
 32  4.24186699828026618e-05
 33 -1.18994368806651071e-05
 34  2.31926415852774499e-05
 35  3.27648280999737250e-04
 36 -1.75918629367384982e-04
 37 -1.68625202522659761e-05
 38  1.43855988361012252e-04
 39  1.86763809536100393e-05
 40  1.38279028459320965e-05
 41  5.74894328777018687e-06
 42  1.01280224618793285e-06
 43 -3.92161234558045734e-06
 44  2.83830086146069117e-03
 45 -6.82573550120375914e-04
 46 -7.51995285113176326e-05
 47  2.59551168015095064e-04
 48 -4.81388846497895098e-06
 49  3.76720900442034789e-05
 50  7.25914647738955428e-06
 51 -2.95949535907104963e-05
 52 -2.22193124383352154e-05
 53 -1.71723086969937574e-06
 54  1.58712155767965921e-06
 55  1.82995262247887657e-06
 56 -9.42757560919496845e-06
 57  1.25459009114705108e-05
 58 -9.96099820001934733e-06
 59 -3.52410013147882274e-05
 60 -8.98604889674566092e-05
 61 -2.41044088847482965e-04
 62 -1.96082745320498431e-05
 63 -5.34255760317028304e-05
 64 -9.26502377691706063e-06
 65  9.38489059295115923e-07
 66  8.53755127747204593e-06
 67  5.15435900914007892e-06
 68  6.61233055669917877e-06
 69 -4.33335538321064778e-03
 70 -5.64937537607136816e-04
 71 -1.36968294219961254e-04
 72 -5.54810061571320290e-04
 73  5.84706891891047868e-06
 74 -4.15904914026293761e-05
 75  5.64842754410417366e-05
 76  3.00852937994561470e-03
 77  2.43618891355361009e-03
 78  5.10758094897672380e-05
 79  3.53509349396560274e-05
 80  1.34847238046309910e-04
 81  2.61162448731816412e-04
 82  1.45909048016220613e-04
 83  1.20904283673713862e-05
 84  1.55574312109987931e-04
 85  8.00873249758672200e-04
 86  2.04122572587439426e-04
 87  1.35322997616856125e-04
 88  5.41694704321110557e-04
 89  2.53418047379392366e-05
 90  7.41091289345660722e-05
 91  6.00408620403916359e-06
 92  4.04994824017465595e-05
 93  5.67289841623812860e-06
 94  4.13611410742311270e-03
 95  8.64113130758718535e-04
 96  8.94137153452397417e-05
 97  1.31125278775929969e-04
 98 -7.48398768376188342e-06
 99 -2.88204806533221618e-05
100  1.08789203325286517e-05
101  5.63471874083005586e-01
102  4.66570283389983465e-01
103  1.28287846792186563e-03
104 -4.68724472801602672e-04
105 -1.20590365570655828e-04
106  4.13000315713461623e-03
107 -1.13121501088048345e-03
108  4.14264417505224474e-04
109  1.03927147824666837e-04
110 -2.97535778830950023e-03
111  3.07861584508256126e-04
112 -1.23712911386290976e-06
113  2.35228434889816302e-04
114  2.45367818123482938e-04
115 -2.49331209636320180e-05
116 -3.69713484882180010e-05
117 -3.82159495599390653e-04
118  2.83138187188466711e-04
119 -4.61460403238794260e-03
120 -4.76600063404097440e-04
121  2.50477805294364213e-04
122  4.38306187530385495e-04
123  3.02022906395666899e-04
124  1.49705223513947020e-04
125  7.85468638330394397e-04
126  3.05776236295013024e-04
127  1.36573878281513511e-04
128  8.06251446637554431e-04
129 -1.14080105937081893e-04
130 -1.66824439500843583e-04
131 -9.77313111720517791e-05
132  4.01081784570083222e-05
133 -3.89092053591223325e-06
134  3.36792419578982164e-04
135 -7.10700245100594533e-04
136  2.04690549042446592e-04
137  2.45202923810855926e-05
138  1.19037201150006618e-03
139 -2.96681449903118748e-04
140  1.20001252646142388e-04
141 -1.01726549063962165e-04
142 -2.04152066946319778e-04
143  3.26901853449479876e-05
144 -4.20904937117144657e-06
145  2.60310104839533844e-04
146 -1.98242525696857739e-04
147  2.88670821116387716e-03
148 -2.99520545195238407e-04
149  2.82724824287890479e-04
150 -1.54485501037236435e-04
151  2.97171928940607438e-05
152 -1.04209593946550760e-04
153 -1.43763606471568741e-05
154  3.24591752240226038e-05
155 -7.95503562924797545e-05
156 -1.19092852067108037e-04
 Sym= A
 Ene= -1.14631044242545013e+01
 Spin= Alpha
 Occup=  1.00000000000000000e+00
  1 -5.63113088773229298e-01
  2 -4.66346339075933813e-01
  3  6.09730435427664579e-04
  4  3.00215236389799280e-04
  5 -1.56135613724686455e-03
  6 -4.16743333535300482e-03
  7 -2.18810284043813129e-04
  8 -2.67626520233907523e-04
  9  1.88158598947694967e-03
 10  7.77260391584635806e-04
 11  2.73307312649592662e-04
 12  8.60127948574532155e-05
 13 -6.29492544795020128e-04
 14 -3.26014069329245266e-05
 15 -7.37962122557454521e-04
 16 -8.69478879854446217e-05
 17 -2.26709711700192798e-04
 18  4.59098822161753948e-05
 19  5.67200916703266292e-05
 20  4.07973038193026167e-04
 21  1.10519160548546571e-05
 22  9.72363956506899904e-04
 23 -3.43419807799283546e-04
 24  1.17773519396911560e-04
 25 -6.00031251811893604e-04
 26 -1.76679051503913359e-02
 27 -1.46159779625356315e-02
 28 -1.54132283380125295e-04
 29  7.89802466112292906e-06
 30 -2.34559632157623627e-04
 31 -1.90797257488246365e-04
 32  2.89249933031482474e-04
 33 -7.46943964100329911e-07
 34  3.66329321841918983e-04
 35  4.33277697581149019e-04
 36 -3.81162019898686913e-04
 37 -3.32471093625998429e-05
 38 -1.10375055224368480e-05
 39  1.23669142739911279e-04
 40  1.36953571903239652e-04
 41 -1.77894617751601312e-05
 42  1.06987453266886194e-04
 43  1.42653252146516494e-05
 44 -7.36539031025460335e-04
 45  6.87443401510345843e-04
 46  6.49504388649497588e-05
 47 -2.69199419892866539e-04
 48 -3.31518837571490164e-06
 49  4.03549284194751630e-05
 50 -4.40919124207241685e-05
 51 -4.81737167530786226e-05
 52 -4.06793259355553479e-05
 53 -9.45784626630834309e-06
 54 -2.29945782101318021e-06
 55  1.24921109194736961e-05
 56  6.92927446810257909e-06
 57  6.03216371255012294e-05
 58  1.04536201540630593e-05
 59 -5.51884332406292992e-05
 60 -4.98782717114238132e-04
 61 -1.76859462636257911e-04
 62 -5.92051215117346544e-05
 63 -1.25600280538384912e-04
 64 -4.13812013121287871e-05
 65 -2.49482942354145642e-06
 66 -3.79736967791268590e-06
 67  1.80301187662310910e-05
 68  7.71103852819347456e-06
 69  4.53706757504183239e-03
 70 -3.18757261177544067e-05
 71  4.54145619019145401e-05
 72  7.66321146061580837e-04
 73  4.42002059447101129e-06
 74 -3.73532519269663415e-06
 75 -1.35968141959443641e-04
 76  9.72805248594262018e-05
 77  7.99778184753358295e-05
 78  2.65779212269925217e-06
 79  2.28231871929645346e-06
 80  8.23706592836893912e-06
 81 -1.49797742155129651e-05
 82  7.93975050306208106e-06
 83 -6.55116718161870793e-06
 84 -5.96279363529976915e-05
 85  2.84322842151147422e-04
 86  2.51282903175482669e-04
 87  5.06140607346300059e-05
 88  8.29482144405587203e-06
 89  1.47424598207503816e-06
 90 -3.06239634528944788e-05
 91 -2.06807187116004865e-07
 92  5.59650777256929120e-06
 93 -8.20829297728223061e-06
 94 -2.26431521197032132e-03
 95 -3.66972915996693070e-04
 96  6.34345770697545603e-05
 97  8.64870585250078765e-04
 98 -3.95149767265154559e-06
 99  3.68525705272354257e-05
100  9.50178572063298867e-05
101 -9.17457785561391647e-05
102 -6.84008292748259283e-05
103  1.68957189724376091e-05
104 -1.14404305414499756e-05
105  2.98819483403920676e-06
106 -1.11419339624829462e-05
107 -7.79671136051332699e-05
108  4.79116289296359937e-05
109 -2.19238548256296574e-05
110 -1.19620211504887033e-04
111  1.52512699059883066e-05
112 -1.06058580782239365e-04
113  7.00595514724165210e-05
114  4.35549951340647481e-05
115 -4.24974524665768822e-06
116 -8.47070402232112336e-06
117 -2.53773211036455121e-05
118  4.01141251000213683e-05
119  1.87637505505302215e-04
120  5.05060724480783083e-04
121  1.48411425439737244e-04
122  2.27958098317756248e-05
123 -1.46929608498582294e-05
124  7.25191302643982821e-05
125  2.11970696396196228e-05
126 -8.96617160593948239e-06
127 -2.61463495980480102e-05
128  4.25034196498757244e-05
129  1.21752187878956651e-04
130  1.94105926319065099e-04
131 -4.21270898399727465e-05
132 -3.47118253794725462e-05
133  1.03914768350537459e-04
134 -5.15135957589102204e-04
135 -4.21888006209100925e-04
136 -1.37836985341858412e-04
137  6.92505144137221416e-04
138  2.64597196984689032e-05
139  1.42759061412857282e-04
140  1.14978199097863544e-04
141 -1.14959867690582370e-04
142 -2.70030758131778047e-04
143  2.86456251039133637e-04
144  1.31805176422148784e-04
145  4.84936318217819388e-06
146 -7.07388460649781406e-05
147 -1.99879321231051944e-03
148 -2.92567993914646636e-04
149 -3.45090589412965312e-04
150  1.33219383331740766e-04
151 -1.36316953333978024e-05
152  3.90845604671552781e-05
153  1.56943481424606443e-04
154 -2.72828305204800124e-05
155 -6.18401593959284131e-05
156  2.57341489271268860e-04
 Sym= A
 Ene= -1.14371927231316555e+01
 Spin= Alpha
 Occup=  1.00000000000000000e+00
  1  1.79074760267928616e-02
  2  1.48903221403017400e-02
  3  1.28374335521087016e-04
  4 -1.45844359087371540e-05
  5  2.67151921122073775e-04
  6 -1.45306050685420346e-04
  7 -6.91818364035671273e-06
  8  1.16170973524080893e-05
  9 -1.14757896581423375e-04
 10  1.22169907097838919e-05
 11  2.01226370412378464e-04
 12  8.53371437198098259e-06
 13  1.31104750401445752e-05
 14  6.66623765874015280e-05
 15 -3.34067777629411134e-07
 16 -2.91185684787544349e-05
 17  1.02413549640617102e-04
 18  3.01308997677689597e-05
 19  1.41815791761964842e-03
 20 -1.39318454108147010e-04
 21  4.92733636865430537e-05
 22  1.38969599028581991e-04
 23  1.27704441713935806e-05
 24 -3.22888786941187550e-05
 25 -9.21928499281693761e-05
 26 -5.63007953711897824e-01
 27 -4.66278044207973252e-01
 28  2.14992297446371140e-04
 29  5.34657573565487965e-06
 30 -2.91687881608423391e-05
 31 -4.22708774694330585e-03
 32 -3.83573663971937769e-04
 33  3.89830661651667388e-06
 34 -3.17569193942242984e-04
 35  8.41205163215977985e-04
 36 -9.63864469285822184e-05
 37 -2.99214294635057432e-05
 38  1.84353423969852093e-04
 39 -3.75391055857366188e-04
 40 -1.98580431121984805e-04
 41  9.18529614459698360e-05
 42 -3.13152598987423544e-04
 43 -6.04602684822444191e-05
 44 -1.46487336764461375e-03
 45  2.03859430266987052e-04
 46  5.66748301691599642e-05
 47 -7.01497199392001752e-04
 48 -3.97946228712801127e-04
 49  1.75917692208167186e-04
 50 -3.28097455935801822e-04
 51 -9.01467536696985532e-03
 52 -7.39275719140547200e-03
 53 -1.55144817144564189e-04
 54 -2.09651219429053448e-05
 55 -6.85126803044799426e-06
 56 -3.99395407545576802e-04
 57 -3.54450837287110870e-04
 58 -4.90927155897266854e-05
 59  5.26090726523963914e-05
 60 -2.56453876316340475e-04
 61 -3.23877264198249476e-05
 62 -1.52317871759962431e-05
 63 -2.16863909858578698e-04
 64  1.40674840843278199e-04
 65 -2.92914018367644328e-05
 66 -7.58289136680234527e-06
 67 -8.86725403118256161e-05
 68 -2.38175184352583352e-05
 69  2.30560633132106821e-03
 70 -3.83176272104945501e-04
 71 -4.62407045024555095e-05
 72  5.25056804133209546e-04
 73 -1.23028662338094766e-05
 74 -2.78085022172673614e-05
 75 -7.59065896928563821e-05
 76 -2.89851259917020565e-04
 77 -2.29974319737351617e-04
 78  6.05202966635307771e-06
 79 -4.54596659619665112e-06
 80 -7.46464110897371785e-06
 81 -6.61275203408397371e-05
 82 -4.27503691963567300e-05
 83  1.53986951757432719e-05
 84  7.07185220489896048e-05
 85  2.84960753229236317e-04
 86  1.54434497808764187e-04
 87  3.94066329250265101e-06
 88 -5.99614532798290061e-05
 89  2.53536054739643814e-06
 90  4.10603614860039347e-05
 91  2.27739935951169038e-06
 92 -8.48249459539524641e-06
 93  7.81576277281771612e-06
 94 -7.68429478687162985e-04
 95 -8.09860770395793601e-05
 96  1.08695972585685289e-04
 97  8.54867869727506092e-04
 98 -5.70157842951921104e-06
 99  5.62024294918949296e-06
100  2.04058985535760094e-05
101 -4.67468042747022804e-05
102 -3.93695691937973760e-05
103 -8.48734153275480692e-08
104 -2.14432319082497706e-06
105 -7.94940747153809479e-06
106  2.37602899093710926e-05
107  1.10481151357103003e-05
108  6.90148529744601900e-06
109  2.36680825193602832e-05
110 -2.38319571001166752e-04
111 -6.25417591339966135e-05
112 -1.04318923302292765e-05
113  1.75779371864528779e-05
114 -7.06952213430788193e-06
115 -8.80895922584455502e-06
116 -4.88698418945279512e-06
117 -1.30903491470342116e-06
118 -1.32990013685469651e-06
119 -2.28387644921927664e-04
120  5.46201630614312028e-04
121  1.29291436311874562e-04
122  1.74944204999630726e-04
123 -7.84974633207976629e-06
124  5.15433728928843470e-05
125 -3.46320976361330023e-06
126 -1.41706838206656433e-06
127  4.98810221885010677e-06
128  5.95851262987939258e-05
129 -1.06658584846354479e-05
130 -8.18862787950530413e-06
131 -5.39270390341750500e-07
132  4.43299851639309599e-06
133 -2.01818690217854935e-05
134 -7.63143403366876068e-07
135  2.23629980878461939e-05
136 -1.49168220480439233e-06
137 -3.54826598853073586e-06
138  2.22061541288542350e-04
139 -7.04269501841074273e-05
140  8.55870179806526442e-05
141 -8.66862204160331120e-05
142 -1.35029893564386666e-06
143 -1.88680770988142676e-05
144 -3.00578890836917093e-06
145  3.63357991096751534e-06
146 -1.26718672538054537e-06
147 -1.44547175834889587e-03
148  6.44327478834190627e-05
149 -2.81709868830939969e-04
150  7.95907866069347147e-05
151  5.57753006762166043e-07
152  5.09109756404203687e-06
153  8.29221357905588136e-05
154  6.72382497580646046e-06
155 -4.41585336206796054e-05
156  1.24483094975249312e-04
 Sym= A
 Ene= -1.14212296225633949e+01
 Spin= Alpha
 Occup=  1.00000000000000000e+00
  1  1.30111076816264885e-04
  2  1.06083846473401850e-04
  3  4.39092006231315136e-06
  4  5.49464078568525253e-07
  5 -7.29570828217222896e-07
  6  2.47342147944890061e-05
  7 -4.72614575275856914e-06
  8 -1.25571018013402325e-06
  9  9.62720847632186464e-06
 10 -2.60593774559163055e-04
 11  2.09350486583975552e-04
 12  4.41067858775982818e-05
 13  5.41596493536642174e-05
 14  4.96505133545920989e-06
 15 -1.10276786483966375e-05
 16  6.88839695642574094e-07
 17 -1.26179811765975691e-07
 18  5.41038534200191058e-07
 19  1.69024609169451771e-03
 20 -2.49165812872894406e-04
 21  8.65432551872910046e-05
 22 -1.05435053685249791e-03
 23  4.99649328235795308e-06
 24 -3.09022482569653017e-05
 25 -6.30065581023765551e-05
 26 -1.07505588019551034e-03
 27 -8.97757702934742752e-04
 28 -6.78199934079554623e-06
 29 -1.19411496710098126e-06
 30 -9.95379218662853542e-06
 31  1.86336392096469468e-05
 32 -2.67009769832227890e-05
 33 -1.38207276768763455e-06
 34  3.11894331213966741e-05
 35  2.96169687345069197e-04
 36 -2.81198106287713901e-05
 37 -3.20136001252712953e-05
 38  1.16913585706364943e-04
 39  6.01565450771365331e-06
 40 -2.28608455939897955e-05
 41 -3.74533018121573004e-06
 42  2.74631420761190448e-06
 43 -2.08895962502579703e-06
 44 -3.57195382629825822e-03
 45 -3.51711544200417471e-04
 46  1.71941189005948329e-05
 47 -7.62182246953440690e-04
 48 -2.86408852681072437e-06
 49  6.43333081179042399e-06
 50  8.75769273966786198e-05
 51  4.88353792110010065e-02
 52  4.04046859421844581e-02
 53 -9.69254880764288258e-05
 54  1.01187636456752324e-05
 55  2.25452403193810813e-04
 56  5.74170973887909268e-04
 57  6.13794361076792759e-05
 58 -4.01028158010316613e-06
 59 -1.38352607563392777e-04
 60 -4.10035183179216912e-04
 61 -7.08981090001486130e-05
 62  1.96529481107884781e-05
 63  2.53817402491333732e-05
 64 -4.94797574675432091e-05
 65  1.38505406193349023e-05
 66 -1.51716177229242064e-05
 67 -9.67902390067699011e-05
 68 -2.65767830512769042e-05
 69  6.82249066177112624e-04
 70  2.55353062958742162e-04
 71 -2.42240169089532657e-05
 72  4.09722300351404777e-04
 73  3.38590152648339751e-05
 74 -1.10159389953208111e-05
 75  9.50819980328154691e-05
 76  5.61233405504323546e-01
 77  4.64785511928006545e-01
 78  1.71995658606272664e-04
 79  9.14747915995339544e-05
 80  6.19020373557034880e-04
 81  4.17045497370703566e-03
 82  9.53681335142321941e-05
 83 -8.60951503554985000e-05
 84 -8.96826392836463969e-04
 85 -5.35445090445387461e-04
 86  1.00730849970300780e-05
 87 -1.69075984130581122e-05
 88  2.03378791741234819e-04
 89  2.41592936046355959e-04