[Molden Format]
[Atoms] (AU)
C    1    6         2.674339352612       0.165952383113      -0.194478460003
H    2    1         4.696468756380       0.431127150414      -0.059281190058
C    3    6         1.361478335750       0.243835370266      -2.347028102226
H    4    1         2.314527002872       0.639502474174      -4.115569058884
C    5    6        -1.361478248634      -0.243835521633      -2.347028057628
H    6    1        -2.314527009864      -0.639502619116      -4.115568975358
C    7    6        -2.674339318219      -0.165952220597      -0.194478461326
H    8    1        -4.696468717452      -0.431126958040      -0.059281149240
C    9    6        -1.309901954059       0.490612928269       2.198212914587
H   10    1        -1.257269329980       2.492746154223       2.413534157646
H   11    1        -2.293233780350      -0.216766239337       3.792386996332
C   12    6         1.309901914563      -0.490612881026       2.198212900792
H   13    1         1.257269240218      -2.492746137782       2.413533902722
H   14    1         2.293233756162       0.216766117261       3.792387058504
[GTO]
  1 0
 s    6  1.00
     4563.2400000000         0.0019666500
      682.0240000000         0.0152306000
      154.9730000000         0.0761269000
       44.4553000000         0.2608010000
       13.0290000000         0.6164620000
        1.8277300000         0.2210060000
 s    3  1.00
       20.9642000000         0.1146600000
        4.8033100000         0.9199990000
        1.4593300000        -0.0030306800
 p    3  1.00
       20.9642000000         0.0402487000
        4.8033100000         0.2375940000
        1.4593300000         0.8158540000
 s    1  1.00
        0.4834560000         1.0000000000
 p    1  1.00
        0.4834560000         1.0000000000
 s    1  1.00
        0.1455850000         1.0000000000
 p    1  1.00
        0.1455850000         1.0000000000
 d    1  1.00
        0.6260000000         1.0000000000
 s    1  1.00
        0.0438000000         1.0000000000
 p    1  1.00
        0.0438000000         1.0000000000

  2 0
 s    3  1.00
       33.8650000000         0.0254938000
        5.0947900000         0.1903730000
        1.1587900000         0.8521610000
 s    1  1.00
        0.3258400000         1.0000000000
 s    1  1.00
        0.1027410000         1.0000000000

  3 0
 s    6  1.00
     4563.2400000000         0.0019666500
      682.0240000000         0.0152306000
      154.9730000000         0.0761269000
       44.4553000000         0.2608010000
       13.0290000000         0.6164620000
        1.8277300000         0.2210060000
 s    3  1.00
       20.9642000000         0.1146600000
        4.8033100000         0.9199990000
        1.4593300000        -0.0030306800
 p    3  1.00
       20.9642000000         0.0402487000
        4.8033100000         0.2375940000
        1.4593300000         0.8158540000
 s    1  1.00
        0.4834560000         1.0000000000
 p    1  1.00
        0.4834560000         1.0000000000
 s    1  1.00
        0.1455850000         1.0000000000
 p    1  1.00
        0.1455850000         1.0000000000
 d    1  1.00
        0.6260000000         1.0000000000
 s    1  1.00
        0.0438000000         1.0000000000
 p    1  1.00
        0.0438000000         1.0000000000

  4 0
 s    3  1.00
       33.8650000000         0.0254938000
        5.0947900000         0.1903730000
        1.1587900000         0.8521610000
 s    1  1.00
        0.3258400000         1.0000000000
 s    1  1.00
        0.1027410000         1.0000000000

  5 0
 s    6  1.00
     4563.2400000000         0.0019666500
      682.0240000000         0.0152306000
      154.9730000000         0.0761269000
       44.4553000000         0.2608010000
       13.0290000000         0.6164620000
        1.8277300000         0.2210060000
 s    3  1.00
       20.9642000000         0.1146600000
        4.8033100000         0.9199990000
        1.4593300000        -0.0030306800
 p    3  1.00
       20.9642000000         0.0402487000
        4.8033100000         0.2375940000
        1.4593300000         0.8158540000
 s    1  1.00
        0.4834560000         1.0000000000
 p    1  1.00
        0.4834560000         1.0000000000
 s    1  1.00
        0.1455850000         1.0000000000
 p    1  1.00
        0.1455850000         1.0000000000
 d    1  1.00
        0.6260000000         1.0000000000
 s    1  1.00
        0.0438000000         1.0000000000
 p    1  1.00
        0.0438000000         1.0000000000

  6 0
 s    3  1.00
       33.8650000000         0.0254938000
        5.0947900000         0.1903730000
        1.1587900000         0.8521610000
 s    1  1.00
        0.3258400000         1.0000000000
 s    1  1.00
        0.1027410000         1.0000000000

  7 0
 s    6  1.00
     4563.2400000000         0.0019666500
      682.0240000000         0.0152306000
      154.9730000000         0.0761269000
       44.4553000000         0.2608010000
       13.0290000000         0.6164620000
        1.8277300000         0.2210060000
 s    3  1.00
       20.9642000000         0.1146600000
        4.8033100000         0.9199990000
        1.4593300000        -0.0030306800
 p    3  1.00
       20.9642000000         0.0402487000
        4.8033100000         0.2375940000
        1.4593300000         0.8158540000
 s    1  1.00
        0.4834560000         1.0000000000
 p    1  1.00
        0.4834560000         1.0000000000
 s    1  1.00
        0.1455850000         1.0000000000
 p    1  1.00
        0.1455850000         1.0000000000
 d    1  1.00
        0.6260000000         1.0000000000
 s    1  1.00
        0.0438000000         1.0000000000
 p    1  1.00
        0.0438000000         1.0000000000

  8 0
 s    3  1.00
       33.8650000000         0.0254938000
        5.0947900000         0.1903730000
        1.1587900000         0.8521610000
 s    1  1.00
        0.3258400000         1.0000000000
 s    1  1.00
        0.1027410000         1.0000000000

  9 0
 s    6  1.00
     4563.2400000000         0.0019666500
      682.0240000000         0.0152306000
      154.9730000000         0.0761269000
       44.4553000000         0.2608010000
       13.0290000000         0.6164620000
        1.8277300000         0.2210060000
 s    3  1.00
       20.9642000000         0.1146600000
        4.8033100000         0.9199990000
        1.4593300000        -0.0030306800
 p    3  1.00
       20.9642000000         0.0402487000
        4.8033100000         0.2375940000
        1.4593300000         0.8158540000
 s    1  1.00
        0.4834560000         1.0000000000
 p    1  1.00
        0.4834560000         1.0000000000
 s    1  1.00
        0.1455850000         1.0000000000
 p    1  1.00
        0.1455850000         1.0000000000
 d    1  1.00
        0.6260000000         1.0000000000
 s    1  1.00
        0.0438000000         1.0000000000
 p    1  1.00
        0.0438000000         1.0000000000

  10 0
 s    3  1.00
       33.8650000000         0.0254938000
        5.0947900000         0.1903730000
        1.1587900000         0.8521610000
 s    1  1.00
        0.3258400000         1.0000000000
 s    1  1.00
        0.1027410000         1.0000000000

  11 0
 s    3  1.00
       33.8650000000         0.0254938000
        5.0947900000         0.1903730000
        1.1587900000         0.8521610000
 s    1  1.00
        0.3258400000         1.0000000000
 s    1  1.00
        0.1027410000         1.0000000000

  12 0
 s    6  1.00
     4563.2400000000         0.0019666500
      682.0240000000         0.0152306000
      154.9730000000         0.0761269000
       44.4553000000         0.2608010000
       13.0290000000         0.6164620000
        1.8277300000         0.2210060000
 s    3  1.00
       20.9642000000         0.1146600000
        4.8033100000         0.9199990000
        1.4593300000        -0.0030306800
 p    3  1.00
       20.9642000000         0.0402487000
        4.8033100000         0.2375940000
        1.4593300000         0.8158540000
 s    1  1.00
        0.4834560000         1.0000000000
 p    1  1.00
        0.4834560000         1.0000000000
 s    1  1.00
        0.1455850000         1.0000000000
 p    1  1.00
        0.1455850000         1.0000000000
 d    1  1.00
        0.6260000000         1.0000000000
 s    1  1.00
        0.0438000000         1.0000000000
 p    1  1.00
        0.0438000000         1.0000000000

  13 0
 s    3  1.00
       33.8650000000         0.0254938000
        5.0947900000         0.1903730000
        1.1587900000         0.8521610000
 s    1  1.00
        0.3258400000         1.0000000000
 s    1  1.00
        0.1027410000         1.0000000000

  14 0
 s    3  1.00
       33.8650000000         0.0254938000
        5.0947900000         0.1903730000
        1.1587900000         0.8521610000
 s    1  1.00
        0.3258400000         1.0000000000
 s    1  1.00
        0.1027410000         1.0000000000

[5D]
[9G]

[MO]
 Sym= A
 Ene= -1.37509320004461610e+01
 Spin= Alpha
 Occup=  1.00000000000000000e+00
  1 -6.67722591022208700e-05
  2  4.15909009729018865e-04
  3 -7.20401634672424821e-04
  4 -4.24012483739267209e-04
  5  2.14168291506234166e-03
  6 -6.83526400519092340e-04
  7  1.61669782267036591e-03
  8  1.54258178509462983e-03
  9 -8.97510584636003819e-03
 10  2.28770421130957552e-02
 11 -1.24252142229695963e-02
 12 -3.25381129672941546e-03
 13  1.08260204630563003e-02
 14 -1.60310293186988629e-03
 15  4.98285621981449812e-03
 16  1.52504743549316613e-03
 17 -1.42021125728159530e-05
 18 -7.24242861438647895e-04
 19  7.38285873843665952e-02
 20 -1.41474295217734122e-02
 21 -2.73802398379589763e-03
 22 -8.73007533822736659e-03
 23 -7.48025239658891943e-04
 24  5.38778353147630236e-04
 25  3.25219841567279781e-03
 26 -7.86333250499440236e-05
 27  4.16370476774021684e-04
 28  3.77379666673512354e-04
 29 -5.59326491218423906e-05
 30  3.30879916987704534e-04
 31 -2.26822339944496906e-03
 32 -2.57759061645952562e-03
 33  4.18711386888027037e-04
 34 -3.88296934456803166e-03
 35 -1.05134996493865557e-02
 36  7.07962550659959299e-03
 37  8.39030178603160847e-04
 38 -4.78703108417902375e-03
 39 -1.13099175839050559e-03
 40 -1.74883470279642165e-03
 41 -2.01929442099732363e-04
 42  2.98656752036906606e-04
 43  4.94532827959807486e-04
 44 -9.08390727129671227e-02
 45  3.61490663707024918e-03
 46  3.65616962553115847e-03
 47 -1.34616488922865117e-02
 48 -2.21994463012038231e-04
 49 -1.70691415337033219e-03
 50  1.21042169708258105e-03
 51 -4.89499876104854188e-05
 52  3.02405941735816013e-04
 53  1.82360693953948649e-04
 54 -8.87272127704495672e-05
 55  1.08345612901297877e-04
 56 -2.27836180830817085e-03
 57 -1.07893163999607262e-03
 58  2.50333984604786364e-04
 59 -1.05338121461877971e-03
 60  1.13671560674370471e-02
 61  5.22596721800132075e-03
 62  9.27273751435510004e-04
 63  6.68795683942611900e-03
 64  2.66961601553422005e-04
 65  2.93560239212065190e-05
 66  1.51258697385585712e-05
 67  1.35307594249917297e-04
 68 -1.46862785756945096e-04
 69  3.51020234817220056e-02
 70  1.31608738115638561e-02
 71  7.45137830095667542e-04
 72  4.64970253875509210e-03
 73 -3.48238298935820605e-04
 74  1.22163318138533532e-03
 75  2.65533057968489732e-03
 76 -4.73288764633211009e-05
 77  2.82173374214942545e-04
 78  4.00771207547938961e-05
 79  9.63618671843363917e-05
 80  3.59874471680596535e-04
 81 -1.64902509391817351e-03
 82 -1.01919697019309816e-03
 83 -3.74526198684087708e-04
 84 -1.81880912977826193e-03
 85 -4.19947000858874719e-03
 86 -8.81858174516984643e-04
 87 -2.24760091093180670e-04
 88  2.24672989388201164e-03
 89 -7.88950463428569242e-04
 90 -6.25719572463417114e-04
 91 -1.11305101280781009e-04
 92  6.11970953797733811e-04
 93 -7.16551577751039994e-04
 94 -3.60217427469808338e-02
 95 -6.08616995553649346e-03
 96 -8.68911421287937575e-04
 97 -1.34506457814866955e-02
 98 -2.72385742289145937e-04
 99 -2.08514578564825067e-04
100  1.49837883230227319e-03
101 -1.21353992931816834e-04
102  6.77577663416358477e-04
103  2.01589789216308950e-03
104 -7.10518339838158200e-04
105  2.06497202195199181e-04
106 -1.68074920749993178e-03
107 -7.36938048751579425e-03
108  2.52603209979037355e-03
109 -1.02043002198842899e-03
110  1.81267586987669954e-02
111  9.83079310375352747e-03
112 -4.73875009197255448e-03
113  1.40513056025346503e-03
114  2.70815621727255994e-03
115  5.85762162146954805e-04
116  2.04791649436243212e-04
117 -3.52323171450732737e-03
118  3.18205655978998428e-03
119  5.59609834418358029e-02
120 -3.37526703678801918e-03
121 -7.93375808732427884e-03
122 -8.29974949981093953e-03
123 -9.25571936879636403e-04
124 -6.35983814626646317e-04
125  1.95738845899114328e-03
126 -5.86866162255636676e-04
127 -1.58100371874409320e-03
128 -1.25046906384347124e-03
129 -6.24362769519576810e-01
130 -4.20197425923579337e-01
131  6.08469773932504500e-04
132 -6.45014408094946902e-04
133  1.03157911006476733e-03
134  5.65342452590960401e-02
135 -3.41258314801960684e-03
136  3.48476335897238490e-03
137 -5.19605806156723388e-03
138 -8.16250831843963048e-02
139  4.09313852211131823e-03
140 -2.87866434602820041e-03
141  8.33092242497221469e-03
142 -6.68945104703401114e-05
143 -1.89756130899761902e-03
144 -7.78545291820082375e-04
145  2.23777906769789293e-03
146 -1.03074290463969482e-03
147 -4.71755528493254181e-02
148  5.46317230374724922e-03
149  1.84079488778416019e-03
150  4.63042745192091074e-03
151 -1.57957884857529694e-03
152  4.70387909406900975e-03
153  1.46290506556489581e-02
154 -1.34806373325802487e-03
155  3.42846974210977030e-03
156  1.23738195668163468e-02
 Sym= A
 Ene= -1.14665241612339575e+01
 Spin= Alpha
 Occup=  1.00000000000000000e+00
  1 -6.52343688614344364e-04
  2 -5.39935633334869751e-04
  3 -7.88536108906116734e-07
  4  6.09366561299349678e-06
  5 -9.69762108957847339e-06
  6 -2.55440248022428415e-05
  7  2.92745710149318152e-05
  8 -2.87736646260144856e-05
  9  5.51000219755738783e-05
 10 -2.81053540079451776e-04
 11  1.04899991824087730e-04
 12  3.97240387900223632e-05
 13 -1.23203098969915951e-05
 14  1.59742813442012692e-05
 15 -3.71618954932922903e-05
 16 -1.45219546397717575e-05
 17  1.64365055528378900e-06
 18 -4.90087046135095079e-07
 19 -1.86776891741028241e-03
 20  3.70255984366327110e-04
 21  4.66989350310736850e-05
 22 -2.72207321846917232e-04
 23  3.40715615561317906e-06
 24  6.83031313585789399e-07
 25  1.10697696425272493e-05
 26 -1.04529846383615498e-04
 27 -8.28219128296995227e-05
 28 -4.47511593737172998e-06
 29  2.12658988943794203e-06
 30 -1.42685585312708977e-06
 31 -3.94130357164953032e-05
 32  4.22444291552017564e-05
 33 -1.46515425537465934e-05
 34  6.55239047940877473e-06
 35  3.88145753561954107e-04
 36 -1.97678987616692759e-04
 37 -1.89953012325195500e-05
 38  1.90045672167885006e-04
 39  1.67929431239513701e-05
 40  1.15463247415367764e-05
 41  7.48582438215547301e-06
 42  6.56135617326621878e-06
 43 -4.26640369960331733e-06
 44  3.44012456578881264e-03
 45 -7.49382766736137623e-04
 46 -1.09098248320962498e-04
 47  3.69620103604486239e-04
 48 -7.47287121301056899e-06
 49  4.75687299748231107e-05
 50  1.50794882647657830e-05
 51 -2.15451261798594970e-05
 52 -1.35246839318229015e-05
 53 -3.04928773260052999e-06
 54  1.64496060777187260e-06
 55  2.67258742447779874e-06
 56 -2.06188983426680847e-05
 57  1.84397789640700500e-05
 58 -1.25865340281761480e-05
 59 -4.85688231003310233e-05
 60 -1.69458469447196736e-04
 61 -2.66941604294566241e-04
 62 -2.83288111607533981e-05
 63 -9.27125259382426126e-05
 64 -1.01335817055675848e-05
 65  8.29878967909082607e-06
 66  1.23929738151201637e-05
 67  4.57754689183778140e-06
 68  8.95698824181132625e-06
 69 -5.37221027482940022e-03
 70 -5.80055721928103671e-04
 71 -1.79474957715214340e-04
 72 -7.38359452245653100e-04
 73  4.48268441633712979e-06
 74 -5.20972161839061099e-05
 75  7.60276975071393768e-05
 76  4.13350586638054022e-03
 77  3.36672319706558722e-03
 78  6.05081942146017482e-05
 79  4.25467370876593634e-05
 80  1.46758120884150488e-04
 81  2.76292274415488248e-04
 82  1.56144932279963638e-04
 83  1.60458955892338463e-05
 84  1.35304424976340459e-04
 85  1.03101675203464620e-03
 86  3.01983434328560881e-04
 87  1.71939766474475111e-04
 88  5.95348297359274891e-04
 89  2.03290796827529544e-05
 90  6.13681916592533950e-05
 91  5.68678314330302590e-06
 92  4.29706494554517898e-05
 93  7.03883356594558010e-06
 94  5.42895935797459411e-03
 95  1.06825287651709177e-03
 96  1.40055218230834431e-04
 97  9.89672725952215720e-05
 98 -8.89327409356933996e-06
 99 -2.89088572697760594e-05
100  2.49361189890615320e-06
101  5.63340150918083760e-01
102  4.66529968245444793e-01
103  1.23113142827896167e-03
104 -5.08423294880260761e-04
105 -9.98163626146640251e-05
106  4.64963043334585494e-03
107 -1.08147043407604677e-03
108  4.59065000152197302e-04
109  1.05599237187221933e-04
110 -3.85692966320795626e-03
111  2.19895001906359789e-04
112  1.44681262703602323e-05
113  2.67376945215681817e-04
114  2.29284730357070431e-04
115 -3.29887462525583203e-05
116 -4.46585804515715177e-05
117 -3.48939330645306153e-04
118  3.00335121152435567e-04
119 -5.93190775814136234e-03
120 -5.45289269226857947e-04
121  3.32116292170981341e-04
122  5.97340035328949750e-04
123  3.30753106145487673e-04
124  1.68844418344373735e-04
125  1.03605350102782328e-03
126  3.38016925102249156e-04
127  1.43109500000951925e-04
128  1.00119268128224257e-03
129 -1.42896384348640041e-04
130 -1.96752726149705323e-04
131 -1.58338993197074254e-04
132  6.80480818679750962e-05
133 -1.24495132527323724e-06
134  4.45700370480370820e-04
135 -7.12153917192472020e-04
136  2.31049157983694448e-04
137  1.02687383336395620e-05
138  1.36582154700873814e-03
139 -4.04998812947654290e-04
140  1.81548384749655357e-04
141 -2.85563917485427093e-05
142 -1.93883715308848260e-04
143  3.03459304422456010e-05
144 -2.52756892393761611e-06
145  2.33406805680541428e-04
146 -2.02702846291926699e-04
147  3.67429333612150424e-03
148 -3.32965940276052014e-04
149  3.78583969176114949e-04
150 -2.18839200032809920e-04
151  2.11671678292267656e-05
152 -9.88208240559282098e-05
153 -4.12188176644130851e-08
154  2.84520473837521696e-05
155 -9.76184407073616897e-05
156 -1.42349624156386245e-04
 Sym= A
 Ene= -1.14638246965383264e+01
 Spin= Alpha
 Occup=  1.00000000000000000e+00
  1 -5.63046953022008800e-01
  2 -4.66303510855266612e-01
  3  6.22723302233435484e-04
  4  3.41398188795918921e-04
  5 -1.50980832709949751e-03
  6 -4.29440898464317905e-03
  7 -2.00791048343094687e-04
  8 -3.04560189237396367e-04
  9  1.85936563525287784e-03
 10  8.82512690243851560e-04
 11  1.77517481769099848e-04
 12  7.76148426748781383e-05
 13 -5.80213309651375175e-04
 14 -5.69821406708175823e-05
 15 -7.83583185728301142e-04
 16 -1.08541793983921853e-04
 17 -2.25114836899227734e-04
 18  5.61189750479429059e-05
 19  3.19833623132279228e-04
 20  3.21255734338346587e-04
 21 -1.15727506731340274e-05
 22  1.14689693239733328e-03
 23 -3.45230103423300278e-04
 24  1.37328218598620281e-04
 25 -5.59035567012888617e-04
 26 -1.88451143137263639e-02
 27 -1.55929962408368084e-02
 28 -1.56360561118276599e-04
 29  8.98013485310328202e-06
 30 -2.41368616364723336e-04
 31 -1.85071965683786927e-04
 32  3.04964554989575309e-04
 33 -2.32664701778634650e-06
 34  3.94623036095776900e-04
 35  4.18516632392695463e-04
 36 -3.55817579619988099e-04
 37 -2.59316597415390821e-05
 38 -4.07219513188573063e-05
 39  1.38017119187354149e-04
 40  1.43673579484663628e-04
 41 -2.05843807325143207e-05
 42  1.02401157818320584e-04
 43  1.53094263403151180e-05
 44 -5.87229211144739806e-04
 45  7.62027448277917581e-04
 46  8.47894527577008553e-05
 47 -2.65697544184113584e-04
 48 -4.46732458630960200e-06
 49  3.54490956474607283e-05
 50 -6.99152213121933137e-05
 51 -6.16798292083139277e-05
 52 -5.22274597571672328e-05
 53 -1.10261920769497950e-05
 54 -2.90784735916145495e-06
 55  1.40012070003768126e-05
 56  6.68365614658739872e-06
 57  6.74569820927607927e-05
 58  1.30606098648165679e-05
 59 -6.26095431515987129e-05
 60 -5.59175215136978516e-04
 61 -1.50980409696639510e-04
 62 -7.09516814871875287e-05
 63 -1.47102392334429053e-04
 64 -4.48641153450818976e-05
 65 -5.17268807789199631e-06
 66 -4.20029866705331625e-06
 67  2.07487853515262381e-05
 68  1.07608652565777077e-05
 69  4.69570336159671683e-03
 70 -7.79203724753125556e-05
 71  3.93328507367944288e-05
 72  7.93274861455532079e-04
 73  4.91683715019741750e-06
 74 -5.42373094948168581e-07
 75 -1.37265704794626247e-04
 76  8.77880122812913340e-05
 77  7.20321922398983343e-05
 78  1.39352351640489535e-06
 79  2.07923137305673101e-06
 80  5.51771973268913301e-06
 81 -2.23110299015383617e-05
 82  1.38467204745752915e-05
 83 -5.34873190331875240e-06
 84 -5.02885915696093286e-05
 85  3.84316384773903817e-04
 86  3.21366031534678202e-04
 87  7.17217550668450130e-05
 88 -3.88394619509696833e-05
 89  2.70822527214092548e-06
 90 -2.82430147852079875e-05
 91  1.38000312434549396e-06
 92  7.30496881005986287e-06
 93 -7.18212335280929618e-06
 94 -2.01382425829248765e-03
 95 -3.22753381075518205e-04
 96  1.09542124249965299e-04
 97  9.85921704730661043e-04
 98 -5.58627039821246103e-06
 99  5.04186920620554739e-05
100  1.07095955803984994e-04
101 -6.60263947297675216e-04
102 -5.38941270590674354e-04
103  1.21563338078271441e-05
104 -1.26215592305703786e-05
105  1.17120939426282722e-06
106 -6.21502853234225081e-06
107 -7.94561384186296868e-05
108  6.22349972784533008e-05
109 -1.97432165845895986e-05
110 -2.41657463075270506e-04
111 -6.20236211241233384e-05
112 -1.67186939394203940e-04
113  1.18560948209727834e-04
114  4.57057138540434534e-05
115 -5.26043097892004549e-06
116 -1.35589391508922516e-05
117 -2.38765043881139372e-05
118  4.78516325999075971e-05
119  2.60977356687475907e-04
120  6.88996120361476090e-04
121  1.48188128783105570e-04
122  1.27646667615716891e-04
123 -2.05778601128351991e-05
124  1.23145204607094763e-04
125  7.14392540595561805e-05
126 -1.12406401029550165e-05
127 -3.44195786704082528e-05
128  2.81721827812699785e-05
129  1.28870260964294639e-04
130  1.99682946746695164e-04
131 -4.80407302177165624e-05
132 -4.11462393561966693e-05
133  1.12551661388641107e-04
134 -5.31604367361464465e-04
135 -4.70112462522649806e-04
136 -1.54482402444093379e-04
137  6.93954280353229662e-04
138  2.37806548711097622e-05
139  1.39935336543619518e-04
140  1.79693513208489109e-04
141 -7.47987370121630887e-05
142 -2.50247856392120513e-04
143  3.05126583463956747e-04
144  1.45081501844471851e-04
145  6.68253481861430542e-06
146 -8.95147338774610361e-05
147 -2.98265874403124591e-03
148 -2.27315662987699315e-04
149 -4.77779550499920721e-04
150  2.21166946267967103e-04
151 -1.32942030734788330e-05
152  5.15098187170765940e-05
153  2.24390260783516565e-04
154 -2.92772539014351289e-05
155 -8.40790868049852300e-05
156  2.96408563745982308e-04
 Sym= A
 Ene= -1.14386667834383360e+01
 Spin= Alpha
 Occup=  1.00000000000000000e+00
  1 -1.90926120873478392e-02
  2 -1.58712909017320221e-02
  3 -1.28804173674923451e-04
  4  1.68675663840229979e-05
  5 -2.76797875311434296e-04
  6  1.31544006055506614e-04
  7  2.40411572792300779e-05
  8 -1.21463195432620291e-05
  9  1.37930316381712281e-04
 10 -4.91672372030929207e-05
 11 -1.76326118621697296e-04
 12 -5.55309630491537789e-06
 13 -2.55171046718108745e-05
 14 -7.11819479432534562e-05
 15 -1.12196765964570096e-05
 16  3.38879921623518176e-05
 17 -1.04520859124430677e-04
 18 -3.62777981289655720e-05
 19 -1.77802445097595212e-03
 20  2.03812179277967789e-04
 21 -1.81340004513501181e-05
 22 -3.31312074343402530e-04
 23 -1.76122272682495214e-05
 24  2.69983768587969575e-05
 25  9.26398528069569886e-05
 26  5.62959798446915571e-01
 27  4.66241267603278109e-01
 28 -2.31287801027301533e-04
 29 -1.96523716607319866e-05
 30  4.41854315560002975e-05
 31  4.27292775593982911e-03
 32  4.11983535499205785e-04
 33  7.76072568866136088e-06
 34  3.44324432064870879e-04
 35 -8.47819379266085316e-04
 36  8.85245989168756560e-05
 37  2.58476239345235048e-05
 38 -1.79291862543544010e-04
 39  3.93754065804992651e-04
 40  2.11728771085316965e-04
 41 -1.09874826274265628e-04
 42  3.16375510007005248e-04
 43  7.72158071917477672e-05
 44  1.34052157824112372e-03
 45 -2.76617348784062719e-04
 46 -7.59384826642207558e-05
 47  6.88531487843803696e-04
 48  4.00982551692095901e-04
 49 -1.81846111098397240e-04
 50  3.42354373495606522e-04
 51  9.07626520284654688e-03
 52  7.44284808144757195e-03
 53  1.55484566597646599e-04
 54  2.56437160250204760e-05
 55  7.05677304153731267e-06
 56  4.05145052996945521e-04
 57  3.55414896560316029e-04
 58  5.97908022683496217e-05
 59 -5.22330240840392803e-05
 60  2.74506776072742736e-04
 61  2.93388229574594141e-05
 62  2.11514065333135448e-05
 63  2.25799906242169304e-04
 64 -1.41387307140088299e-04
 65  2.85325657485246175e-05
 66  9.02105224270922163e-06
 67  8.78501412457152861e-05
 68  2.84490021728727502e-05
 69 -2.48192250502717558e-03
 70  4.20381487865763900e-04
 71  6.20665509177625255e-05
 72 -5.44746907525551702e-04
 73  1.18466236719007173e-05
 74  2.86560390803035936e-05
 75  8.04564295567155593e-05
 76  2.70226070329213032e-04
 77  2.13365213498308552e-04
 78 -5.42879378153284620e-06
 79  5.46863942822387581e-06
 80  6.86030534738856134e-06
 81  7.14682388848545525e-05
 82  4.22179908606087380e-05
 83 -1.85640684010465732e-05
 84 -7.12945071058929071e-05
 85 -3.28373719788308351e-04
 86 -1.80258832357920877e-04
 87 -1.14076925674476551e-05
 88  6.60847794480553879e-05
 89 -2.84872642577903735e-06
 90 -4.13436777887486566e-05
 91 -3.34962962614067246e-06
 92  8.73181338682416395e-06
 93 -9.91981107393155426e-06
 94  4.55704537802359476e-04
 95  2.81161970468920882e-05
 96 -1.55530946991566920e-04
 97 -9.96506878188788484e-04
 98  5.37392519609349617e-06
 99 -1.05943781628806914e-05
100 -2.12522538957982785e-05
101  8.30080555311779654e-05
102  6.95821036570450367e-05
103 -5.04054742094641969e-07
104  3.05150053654755107e-06
105  8.20969660272224604e-06
106 -2.91448500539653967e-05
107 -1.00277844450606096e-05
108 -1.10263053710409023e-05
109 -2.38717222338552400e-05
110  3.12379057586443750e-04
111  8.54695865919639041e-05
112  3.29358405510734895e-05
113 -2.88200632113153208e-05
114  5.09646267118185378e-06
115  9.16569944210611423e-06
116  4.85226157914375734e-06
117  1.99519648639879765e-06
118  1.74112962010009709e-06
119  4.83693188326031356e-04
120 -6.76153114668070370e-04
121 -1.69970786693354503e-04
122 -2.75102092291489660e-04
123  8.89144655795809878e-06
124 -6.80598114531152118e-05
125 -4.86468754281175718e-05
126  9.36274189162860197e-07
127 -2.11489543852448326e-06
128 -8.60693994329235642e-05
129  1.13559645969133396e-05
130  8.65618216636839508e-06
131 -1.10033994838216659e-06
132 -4.83231559341793327e-06
133  2.16594420819877676e-05
134  2.03815025928270774e-06
135 -2.05158897360571887e-05
136  1.40204546663859916e-06
137 -1.35488417689816084e-06
138 -2.47609212996254674e-04
139  7.98244675276398800e-05
140 -1.19155770752764109e-04
141  8.43222350661123102e-05
142  3.21307335464789497e-06
143  1.93713537598193216e-05
144  4.00460731978984608e-06
145 -5.22764862634919159e-06
146  2.54522999106965094e-06
147  2.25201695119179755e-03
148 -3.20044450116205783e-05
149  3.90057372693511926e-04
150 -1.96671909140134365e-04
151 -2.63100114622627555e-06
152 -1.89805161427415864e-06
153 -1.40674710690917088e-04
154 -8.50774392541826135e-06
155  5.76133888130893015e-05
156 -1.71074897419670540e-04
 Sym= A
 Ene= -1.14197182880261536e+01
 Spin= Alpha
 Occup=  1.00000000000000000e+00
  1  1.36241460663155570e-04
  2  1.10640496610531084e-04
  3  3.90332249476729754e-06
  4 -1.05613005962911950e-07
  5  1.38299379776825653e-06
  6  3.39138856789766296e-05
  7 -2.48336910749540212e-06
  8  1.72457226097105015e-06
  9  1.30082632295126425e-07
 10 -3.63859395577172161e-04
 11  2.78505730659949391e-04
 12  5.68499619421177890e-05
 13  1.02561396975211420e-04
 14  5.23688899091062720e-06
 15 -8.31657511023723090e-06
 16  1.24920906984114396e-06
 17 -7.86307237417232112e-07
 18 -1.34497209354926606e-06
 19  1.36031205861152625e-03
 20 -1.88399314487068233e-04
 21  1.50971955752350812e-04
 22 -1.24276684160058758e-03
 23  6.99417831066372250e-06
 24 -4.43745701073914973e-05
 25 -7.00161730523092871e-05
 26 -1.46562011885295889e-03
 27 -1.22476484021193360e-03
 28 -1.33448840288536347e-05
 29 -2.54485686230509363e-06
 30 -1.12703886182999908e-05
 31  3.09205271252152106e-05
 32 -4.41082768837942926e-05
 33 -5.07725680285418982e-06
 34  3.49425076009824922e-05
 35  3.80609167406804904e-04
 36 -1.01291365937388586e-05
 37 -3.83376927871431866e-05
 38  1.59578624743513279e-04
 39  1.47135535179501341e-06
 40 -2.87517423346812127e-05
 41 -4.88576885450551326e-06
 42  5.92647842719765315e-06
 43 -2.10433830679273195e-06
 44 -3.82826286816740453e-03
 45 -4.18763495176533622e-04
 46 -3.50743616481108442e-06
 47 -8.11654373536652650e-04
 48 -3.69637569415543564e-06
 49  7.23002817956896735e-06
 50  9.50492602145972697e-05
 51  7.37165605528932871e-02
 52  6.10138461508615768e-02
 53 -7.20637124780904595e-05
 54  1.36055836466276971e-05
 55  2.30449501962744999e-04
 56  7.75372703403656043e-04
 57  3.48191369131946215e-05
 58 -9.43297863928208003e-06
 59 -1.38384930317187268e-04
 60 -4.73651973817516001e-04
 61 -5.45272290009182731e-05
 62  2.90799202604621033e-05
 63  1.35569140986812583e-05
 64 -4.59638190303148558e-05
 65  2.20807921723214714e-06
 66 -1.63135525462798940e-05
 67 -8.39397714953310774e-05
 68 -2.98139570926067781e-05
 69  6.60043917254363633e-04
 70  3.22705588682153596e-04
 71 -1.01488741390846896e-05
 72  4.48500744322903556e-04
 73  5.36949651099198969e-05
 74 -1.79793283929267824e-05
 75  1.22960977044848512e-04
 76  5.58466647902501667e-01
 77  4.62504726833946889e-01
 78  1.72401375797799947e-04
 79  9.89323782316988169e-05
 80  5.60148632717705924e-04
 81  4.25933459053907948e-03
 82  1.25119717907244238e-04
 83 -9.34818910355632261e-05
 84 -8.55725846141371484e-04
 85 -5.70404938010897196e-04
 86 -3.73854486360440679e-05
 87 -3.03266524278030643e-05
 88  1.71381171301319691e-04
 89  2.48614174903044063e-04