[Molden Format]
[Atoms] (AU)
C    1    6         2.688203947216       0.126267316038      -0.211284584910
H    2    1         4.728095907479       0.359456870713      -0.218011119477
C    3    6         1.369782617967       0.204435981782      -2.374855666231
H    4    1         2.318345438850       0.530982748944      -4.165937681460
C    5    6        -1.369782617967      -0.204435981782      -2.374855666231
H    6    1        -2.318345438850      -0.530982748944      -4.165937681460
C    7    6        -2.688203947216      -0.126267316038      -0.211284584910
H    8    1        -4.728095907290      -0.359456870902      -0.218011119477
C    9    6        -1.377448045575       0.458746757807       2.255586404767
H   10    1        -1.428727068278       2.518961490447       2.552818698465
H   11    1        -2.401900037590      -0.368832778254       3.849461186775
C   12    6         1.377448045575      -0.458746757807       2.255586404767
H   13    1         1.428727068278      -2.518961490069       2.552818698465
H   14    1         2.401900037401       0.368832778065       3.849461186397
[GTO]
  1 0
 s    6  1.00
     4563.2400000000         0.0019666500
      682.0240000000         0.0152306000
      154.9730000000         0.0761269000
       44.4553000000         0.2608010000
       13.0290000000         0.6164620000
        1.8277300000         0.2210060000
 s    3  1.00
       20.9642000000         0.1146600000
        4.8033100000         0.9199990000
        1.4593300000        -0.0030306800
 p    3  1.00
       20.9642000000         0.0402487000
        4.8033100000         0.2375940000
        1.4593300000         0.8158540000
 s    1  1.00
        0.4834560000         1.0000000000
 p    1  1.00
        0.4834560000         1.0000000000
 s    1  1.00
        0.1455850000         1.0000000000
 p    1  1.00
        0.1455850000         1.0000000000
 d    1  1.00
        0.6260000000         1.0000000000
 s    1  1.00
        0.0438000000         1.0000000000
 p    1  1.00
        0.0438000000         1.0000000000

  2 0
 s    3  1.00
       33.8650000000         0.0254938000
        5.0947900000         0.1903730000
        1.1587900000         0.8521610000
 s    1  1.00
        0.3258400000         1.0000000000
 s    1  1.00
        0.1027410000         1.0000000000

  3 0
 s    6  1.00
     4563.2400000000         0.0019666500
      682.0240000000         0.0152306000
      154.9730000000         0.0761269000
       44.4553000000         0.2608010000
       13.0290000000         0.6164620000
        1.8277300000         0.2210060000
 s    3  1.00
       20.9642000000         0.1146600000
        4.8033100000         0.9199990000
        1.4593300000        -0.0030306800
 p    3  1.00
       20.9642000000         0.0402487000
        4.8033100000         0.2375940000
        1.4593300000         0.8158540000
 s    1  1.00
        0.4834560000         1.0000000000
 p    1  1.00
        0.4834560000         1.0000000000
 s    1  1.00
        0.1455850000         1.0000000000
 p    1  1.00
        0.1455850000         1.0000000000
 d    1  1.00
        0.6260000000         1.0000000000
 s    1  1.00
        0.0438000000         1.0000000000
 p    1  1.00
        0.0438000000         1.0000000000

  4 0
 s    3  1.00
       33.8650000000         0.0254938000
        5.0947900000         0.1903730000
        1.1587900000         0.8521610000
 s    1  1.00
        0.3258400000         1.0000000000
 s    1  1.00
        0.1027410000         1.0000000000

  5 0
 s    6  1.00
     4563.2400000000         0.0019666500
      682.0240000000         0.0152306000
      154.9730000000         0.0761269000
       44.4553000000         0.2608010000
       13.0290000000         0.6164620000
        1.8277300000         0.2210060000
 s    3  1.00
       20.9642000000         0.1146600000
        4.8033100000         0.9199990000
        1.4593300000        -0.0030306800
 p    3  1.00
       20.9642000000         0.0402487000
        4.8033100000         0.2375940000
        1.4593300000         0.8158540000
 s    1  1.00
        0.4834560000         1.0000000000
 p    1  1.00
        0.4834560000         1.0000000000
 s    1  1.00
        0.1455850000         1.0000000000
 p    1  1.00
        0.1455850000         1.0000000000
 d    1  1.00
        0.6260000000         1.0000000000
 s    1  1.00
        0.0438000000         1.0000000000
 p    1  1.00
        0.0438000000         1.0000000000

  6 0
 s    3  1.00
       33.8650000000         0.0254938000
        5.0947900000         0.1903730000
        1.1587900000         0.8521610000
 s    1  1.00
        0.3258400000         1.0000000000
 s    1  1.00
        0.1027410000         1.0000000000

  7 0
 s    6  1.00
     4563.2400000000         0.0019666500
      682.0240000000         0.0152306000
      154.9730000000         0.0761269000
       44.4553000000         0.2608010000
       13.0290000000         0.6164620000
        1.8277300000         0.2210060000
 s    3  1.00
       20.9642000000         0.1146600000
        4.8033100000         0.9199990000
        1.4593300000        -0.0030306800
 p    3  1.00
       20.9642000000         0.0402487000
        4.8033100000         0.2375940000
        1.4593300000         0.8158540000
 s    1  1.00
        0.4834560000         1.0000000000
 p    1  1.00
        0.4834560000         1.0000000000
 s    1  1.00
        0.1455850000         1.0000000000
 p    1  1.00
        0.1455850000         1.0000000000
 d    1  1.00
        0.6260000000         1.0000000000
 s    1  1.00
        0.0438000000         1.0000000000
 p    1  1.00
        0.0438000000         1.0000000000

  8 0
 s    3  1.00
       33.8650000000         0.0254938000
        5.0947900000         0.1903730000
        1.1587900000         0.8521610000
 s    1  1.00
        0.3258400000         1.0000000000
 s    1  1.00
        0.1027410000         1.0000000000

  9 0
 s    6  1.00
     4563.2400000000         0.0019666500
      682.0240000000         0.0152306000
      154.9730000000         0.0761269000
       44.4553000000         0.2608010000
       13.0290000000         0.6164620000
        1.8277300000         0.2210060000
 s    3  1.00
       20.9642000000         0.1146600000
        4.8033100000         0.9199990000
        1.4593300000        -0.0030306800
 p    3  1.00
       20.9642000000         0.0402487000
        4.8033100000         0.2375940000
        1.4593300000         0.8158540000
 s    1  1.00
        0.4834560000         1.0000000000
 p    1  1.00
        0.4834560000         1.0000000000
 s    1  1.00
        0.1455850000         1.0000000000
 p    1  1.00
        0.1455850000         1.0000000000
 d    1  1.00
        0.6260000000         1.0000000000
 s    1  1.00
        0.0438000000         1.0000000000
 p    1  1.00
        0.0438000000         1.0000000000

  10 0
 s    3  1.00
       33.8650000000         0.0254938000
        5.0947900000         0.1903730000
        1.1587900000         0.8521610000
 s    1  1.00
        0.3258400000         1.0000000000
 s    1  1.00
        0.1027410000         1.0000000000

  11 0
 s    3  1.00
       33.8650000000         0.0254938000
        5.0947900000         0.1903730000
        1.1587900000         0.8521610000
 s    1  1.00
        0.3258400000         1.0000000000
 s    1  1.00
        0.1027410000         1.0000000000

  12 0
 s    6  1.00
     4563.2400000000         0.0019666500
      682.0240000000         0.0152306000
      154.9730000000         0.0761269000
       44.4553000000         0.2608010000
       13.0290000000         0.6164620000
        1.8277300000         0.2210060000
 s    3  1.00
       20.9642000000         0.1146600000
        4.8033100000         0.9199990000
        1.4593300000        -0.0030306800
 p    3  1.00
       20.9642000000         0.0402487000
        4.8033100000         0.2375940000
        1.4593300000         0.8158540000
 s    1  1.00
        0.4834560000         1.0000000000
 p    1  1.00
        0.4834560000         1.0000000000
 s    1  1.00
        0.1455850000         1.0000000000
 p    1  1.00
        0.1455850000         1.0000000000
 d    1  1.00
        0.6260000000         1.0000000000
 s    1  1.00
        0.0438000000         1.0000000000
 p    1  1.00
        0.0438000000         1.0000000000

  13 0
 s    3  1.00
       33.8650000000         0.0254938000
        5.0947900000         0.1903730000
        1.1587900000         0.8521610000
 s    1  1.00
        0.3258400000         1.0000000000
 s    1  1.00
        0.1027410000         1.0000000000

  14 0
 s    3  1.00
       33.8650000000         0.0254938000
        5.0947900000         0.1903730000
        1.1587900000         0.8521610000
 s    1  1.00
        0.3258400000         1.0000000000
 s    1  1.00
        0.1027410000         1.0000000000

[5D]
[9G]

[MO]
 Sym= A
 Ene= -1.01739601485104298e+01
 Spin= Alpha
 Occup=  1.00000000000000000e+00
  1 -2.14324485144024817e-05
  2 -8.34161220763889846e-05
  3  2.73159855723275210e-05
  4  8.66146689278291315e-06
  5 -8.44114437101127621e-05
  6  3.52441968375325724e-04
  7 -3.11900758664111885e-04
  8 -2.81009650300345432e-05
  9  4.01470228124485898e-04
 10  1.97316927868667041e-03
 11 -4.34625196147444322e-04
 12 -1.48916253326280467e-04
 13 -4.23679664127266412e-04
 14  1.68634893292995291e-04
 15 -1.18459197762761718e-04
 16 -2.49866088934916244e-06
 17 -1.40792221584027809e-04
 18  1.60906913709525081e-04
 19  1.17957703509688344e-02
 20 -1.94493841365895800e-03
 21 -3.31229147795171022e-05
 22  4.41818392279725875e-03
 23  6.85126011782281679e-05
 24  1.53116433488723882e-05
 25 -5.09476782032335725e-04
 26  3.47884183276781465e-04
 27  2.07932569306147310e-04
 28  4.91625375019725177e-05
 29 -2.41220293832467449e-05
 30 -3.34228046100037252e-05
 31  5.85368418694229308e-04
 32 -2.85600128838028465e-04
 33  7.81856668471566610e-05
 34  2.62999430998437386e-04
 35 -3.61093638780350234e-03
 36  1.60846143953177431e-03
 37  2.57854860579192992e-04
 38 -1.99947536653520032e-03
 39 -7.21768845256400373e-05
 40 -5.55223291626514285e-06
 41  2.23479109177227144e-06
 42 -3.07837629617940237e-05
 43  3.65905882259403556e-05
 44 -1.02109174676698663e-02
 45  4.00681176054393934e-03
 46 -8.05520291028548075e-06
 47 -1.34433412573263153e-03
 48  9.06790495229680327e-05
 49 -3.44887492014517608e-04
 50 -7.82897768660734410e-04
 51 -1.89970323939154579e-04
 52 -2.63054021512575988e-04
 53  9.60574297232742361e-05
 54 -2.07810749714702989e-05
 55 -1.00056202346997873e-04
 56  4.80583100976879178e-04
 57 -6.46684776136537544e-04
 58  1.27272917904751418e-04
 59  1.01331921790440409e-03
 60  3.29739968047221841e-03
 61  2.42301944010466863e-03
 62  2.44823315024631893e-04
 63  1.73440166811170485e-03
 64  3.09773101014280765e-04
 65 -4.17531235110021849e-04
 66 -4.22716248665431273e-05
 67 -8.73394422823111152e-05
 68 -1.14507892144767736e-04
 69  2.56189036388052606e-02
 70  1.25881924434937493e-03
 71  1.13395514118403416e-03
 72  3.76454300179687815e-03
 73  2.93768760205013018e-05
 74  5.95185010249288317e-04
 75 -1.57121866116766064e-04
 76  5.81362025975081008e-04
 77  4.16498704809852038e-04
 78 -1.96775118328889925e-04
 79 -1.09465529821616589e-04
 80 -6.10610689468617327e-04
 81  1.02553159478103743e-04
 82  2.69633336552194884e-04
 83  3.13151398597603557e-04
 84  2.11979369198801032e-03
 85 -7.07895763094313745e-03
 86 -3.98836497287781422e-03
 87 -9.06916573103294763e-04
 88 -3.51206290927729824e-03
 89  4.13389108852971405e-04
 90  1.14939514028318426e-03
 91  3.18145326244848720e-04
 92 -3.32415679941369695e-05
 93  1.31723781589302758e-04
 94 -1.87772940100578330e-02
 95 -3.80770608831294041e-03
 96 -8.24764728889509262e-04
 97  2.59712139117464127e-03
 98  1.78611831584032607e-04
 99 -2.23356747936664853e-04
100 -1.18223175596355082e-03
101 -5.62931014914547001e-01
102 -4.63552444579118983e-01
103  8.53868122791858066e-05
104 -1.06565666061254606e-04
105 -1.60321637117133328e-04
106 -1.80747184619351742e-02
107 -3.75517404575302421e-04
108  5.58974649691100891e-04
109  1.14698507062769260e-03
110  2.37647797515932423e-02
111  1.18352320057234792e-03
112 -9.00579310498689244e-04
113 -2.73876998666355669e-03
114 -1.34752578485120944e-04
115 -4.03018832818728147e-04
116 -1.18815021315222868e-04
117 -3.25223653503148487e-04
118  5.28839242889841577e-05
119  1.08897112345101056e-02
120  1.45134027563369357e-03
121  8.61237338095250304e-04
122 -7.50004600527318273e-04
123  1.25452407156215120e-04
124 -1.19684684823354753e-03
125 -3.84492034659693338e-03
126  8.57188548392167146e-05
127 -8.75559858912923895e-04
128 -3.46838363577487785e-03
129  2.04615066157791395e-05
130 -7.10818607234646623e-05
131  4.75136398526116593e-04
132 -1.59471498722418077e-04
133 -5.44698532741349931e-05
134  3.13606093554125458e-04
135 -1.08137721770822353e-03
136  3.62814982398222219e-04
137  2.52298535056615959e-04
138 -6.22130607863535714e-03
139  2.76315884896513510e-03
140 -1.30381662549776747e-03
141 -1.39465803004018254e-04
142 -4.67561986612963600e-04
143  1.10341744764905339e-04
144  5.91420603362147136e-05
145  6.47745809306645923e-04
146 -5.00993136722554101e-04
147 -1.70179135099187868e-02
148 -1.13982592920823999e-03
149 -2.38093130172413545e-03
150  2.75980769294610672e-03
151  1.70648339777831491e-04
152  3.38400529693029604e-04
153 -3.60187112484915519e-04
154  8.52841358047810546e-05
155  5.52546292411754429e-04
156  6.11349885062711235e-04
 Sym= A
 Ene= -1.01737631295810314e+01
 Spin= Alpha
 Occup=  1.00000000000000000e+00
  1 -5.81361956547565189e-04
  2 -4.16498647563685951e-04
  3 -1.96775117747975974e-04
  4 -1.09465529903169477e-04
  5  6.10610689442010030e-04
  6 -1.02553158090805968e-04
  7  2.69633334334623543e-04
  8  3.13151398931717749e-04
  9 -2.11979369253344034e-03
 10  7.07895763375230441e-03
 11 -3.98836495670446683e-03
 12 -9.06916568143138020e-04
 13  3.51206289319757605e-03
 14 -4.13389108683336482e-04
 15  1.14939514108586835e-03
 16  3.18145326454211791e-04
 17  3.32415689942885980e-05
 18 -1.31723781551260706e-04
 19  1.87772927755914427e-02
 20 -3.80770588296050743e-03
 21 -8.24764696489102360e-04
 22 -2.59712161172032671e-03
 23 -1.78611830213369800e-04
 24  2.23356737759544856e-04
 25  1.18223177297451182e-03
 26  1.89970383850236832e-04
 27  2.63054070783473950e-04
 28  9.60574297596401253e-05
 29 -2.07810750583329889e-05
 30  1.00056202529693420e-04
 31 -4.80583097170395783e-04
 32 -6.46684776516528396e-04
 33  1.27272918271949145e-04
 34 -1.01331921907030632e-03
 35 -3.29739969105379655e-03
 36  2.42301942357011019e-03
 37  2.44823310869475639e-04
 38 -1.73440166717524018e-03
 39 -3.09773101645049260e-04
 40 -4.17531235713030973e-04
 41 -4.22716247509307669e-05
 42  8.73394417335461294e-05
 43  1.14507892129426831e-04
 44 -2.56189032662569489e-02
 45  1.25881918939143070e-03
 46  1.13395513777615319e-03
 47 -3.76454285832575732e-03
 48 -2.93768770816996417e-05
 49 -5.95185003382752331e-04
 50  1.57121861742272459e-04
 51 -3.47884239939989879e-04
 52 -2.07932615855702671e-04
 53  4.91625368552359675e-05
 54 -2.41220293692834881e-05
 55  3.34228048189449134e-05
 56 -5.85368421164485730e-04
 57 -2.85600125980815139e-04
 58  7.81856667770776544e-05
 59 -2.62999432437370506e-04
 60  3.61093639629812401e-03
 61  1.60846142050937737e-03
 62  2.57854859779445625e-04
 63  1.99947537466855976e-03
 64  7.21768847261585264e-05
 65 -5.55223244615832669e-06
 66  2.23479112353325410e-06
 67  3.07837627650830900e-05
 68 -3.65905880875457091e-05
 69  1.02109168311022812e-02
 70  4.00681190969904514e-03
 71 -8.05520131285774121e-06
 72  1.34433399468015732e-03
 73 -9.06790496328208198e-05
 74  3.44887490943899459e-04
 75  7.82897772665745034e-04
 76  2.14325339446141197e-05
 77  8.34161923902529959e-05
 78  2.73159851202066702e-05
 79  8.66146716062390275e-06
 80  8.44114441427815825e-05
 81 -3.52441965499991747e-04
 82 -3.11900756779497350e-04
 83 -2.81009660354891875e-05
 84 -4.01470229982344112e-04
 85 -1.97316928758888011e-03
 86 -4.34625205312802899e-04
 87 -1.48916251594719391e-04
 88  4.23679681349379905e-04
 89 -1.68634893232414492e-04
 90 -1.18459198104719368e-04
 91 -2.49866122364666090e-06
 92  1.40792222171438083e-04
 93 -1.60906913562107847e-04
 94 -1.17957706451226798e-02
 95 -1.94493847696338177e-03
 96 -3.31229647538653092e-05
 97 -4.41818432875388384e-03
 98 -6.85126002610830239e-05
 99 -1.53116493394249755e-05
100  5.09476794509216690e-04
101 -2.04613385945323790e-05
102  7.10819990458024312e-05
103  4.75136398191072589e-04
104 -1.59471497957089820e-04
105  5.44698536411279349e-05
106 -3.13606086740377378e-04
107 -1.08137721613848917e-03
108  3.62814978912183884e-04
109 -2.52298537240886519e-04
110  6.22130606058233886e-03
111  2.76315884861911502e-03
112 -1.30381660746743374e-03
113  1.39465810841987731e-04
114  4.67561986692778769e-04
115  1.10341744866655897e-04
116  5.91420605564471559e-05
117 -6.47745809356506429e-04
118  5.00993136429427792e-04
119  1.70179143157450675e-02
120 -1.13982609728977458e-03
121 -2.38093137707081704e-03
122 -2.75980788134049665e-03
123 -1.70648340700660985e-04
124 -3.38400524040421069e-04
125  3.60187051115305550e-04
126 -8.52841372712104088e-05
127 -5.52546281582094560e-04
128 -6.11349935657441246e-04
129  5.62931014913893746e-01
130  4.63552444580235257e-01
131  8.53868130258755989e-05
132 -1.06565666314285709e-04
133  1.60321637180657465e-04
134  1.80747184580292604e-02
135 -3.75517407415586473e-04
136  5.58974651508241946e-04
137 -1.14698507215614445e-03
138 -2.37647797259943235e-02
139  1.18352321041632620e-03
140 -9.00579321775217675e-04
141  2.73876998497053683e-03
142  1.34752578818669373e-04
143 -4.03018832891100323e-04
144 -1.18815021588395968e-04
145  3.25223653078330970e-04
146 -5.28839238802059896e-05
147 -1.08897101438187264e-02
148  1.45134036685827463e-03
149  8.61237443414367013e-04
150  7.50004380785174412e-04
151 -1.25452408327075620e-04
152  1.19684685065430470e-03
153  3.84492028690370212e-03
154 -8.57188566145484815e-05
155  8.75559866378523540e-04
156  3.46838357552629569e-03
 Sym= A
 Ene= -1.01721201671012889e+01
 Spin= Alpha
 Occup=  1.00000000000000000e+00
  1 -5.62873177164149086e-01
  2 -4.63386148175203572e-01
  3 -5.05944293312355774e-04
  4 -2.20444353723439650e-05
  5 -5.26655447880107572e-04
  6 -1.86944374916412671e-02
  7  3.04481595946976295e-03
  8  8.19298924158288512e-05
  9  3.16762399560507630e-03
 10  1.35242802490725851e-02
 11 -3.39445835045523552e-03
 12 -6.66902240071435746e-04
 13 -2.71447861500459205e-04
 14 -1.66726158872352714e-03
 15 -1.50819932462814945e-03
 16  2.21915116697958309e-04
 17 -6.34689992253473635e-04
 18  1.59810901124175312e-06
 19 -1.63217795489652845e-02
 20  4.39429022820066011e-03
 21  1.49939561097673746e-03
 22  1.91085977233836101e-03
 23 -3.01957369701653347e-04
 24  8.48381899798830112e-04
 25 -1.43926214440103905e-03
 26  2.16975306548494409e-04
 27 -2.77457092696288034e-04
 28 -6.04853634986982623e-04
 29  1.46056210068395203e-05
 30 -7.68738898219815730e-04
 31  1.55516716414208023e-03
 32  3.27558507717826738e-03
 33 -8.24437619917394376e-05
 34  4.26694351603005596e-03
 35 -9.01687536011442888e-04
 36 -2.69955954852614728e-04
 37  4.54477993708534626e-04
 38 -2.83111192120007703e-03
 39  1.78437200413128841e-03
 40  2.12643915967260190e-03
 41 -9.71414383064082279e-05
 42  2.93558158907014253e-04
 43 -1.90113712659558130e-04
 44  8.57504038320040796e-03
 45  1.79131807211267593e-03
 46 -5.77400202081741688e-04
 47  3.84623116511398680e-04
 48  2.85770268449084708e-04
 49 -2.07399235494861876e-04
 50 -1.61875186642688974e-03
 51 -9.72687935935498475e-05
 52 -1.63171925464853772e-04
 53 -2.08124383171661895e-04
 54 -2.87344383151191952e-05
 55  8.30117484372351833e-05
 56  3.66551819558671370e-04
 57  1.33377238623006854e-03
 58  1.61625623333070556e-04
 59 -3.93842745048138027e-04
 60 -3.31487121705843313e-04
 61 -5.34102076967031764e-04
 62 -2.22005269856664737e-04
 63 -4.71988453170564423e-05
 64 -6.23131531245886116e-04
 65  1.65492495318637824e-04
 66  2.70200303836050003e-05
 67  3.40453075289400150e-04
 68  1.19170401816601340e-04
 69  1.67977550307763443e-02
 70 -2.65901064452542853e-03
 71  4.78723043934461162e-05
 72  3.53751936763757342e-03
 73  8.58301269628765557e-05
 74  7.37893609230708976e-05
 75 -8.19615163872687764e-04
 76  8.68692687458855965e-06
 77 -6.46191962142571215e-05
 78 -2.18465363393597795e-05
 79 -1.06558623986338361e-06
 80  3.71334513296986152e-05
 81  3.44968672720307433e-04
 82  3.51447076698853768e-04
 83 -3.76741568732127702e-06
 84 -4.23174940808758980e-04
 85  4.58347884689501569e-04
 86  5.33660269689057690e-04
 87  2.90399488242837323e-04
 88 -6.55147056162119566e-07
 89  9.70087816440147216e-05
 90 -2.28036669041283187e-04
 91  5.20342441362728605e-05
 92 -1.84275644749690845e-05
 93 -6.38266735052642699e-06
 94 -6.77955474381932138e-03
 95 -1.08184527494466871e-03
 96  6.89511426404852690e-04
 97  6.40050529506308325e-03
 98  3.25620684931824436e-05
 99  1.75981229175672520e-04
100 -9.81098536723601426e-05
101  3.35046730023557315e-05
102 -3.40312096972079825e-05
103 -5.60112890992649635e-05
104 -8.63559795648668454e-06
105 -1.39175229373309644e-05
106  4.06445469611740407e-04
107  3.29948381071396978e-04
108 -1.08612648530865464e-05
109 -4.56993900175108655e-05
110 -6.97436864815715631e-04
111 -6.49619163434582317e-04
112 -9.27868830991889111e-04
113  4.58283297518442042e-04
114 -9.78302502376578962e-05
115  1.06283404588585994e-04
116  3.44548903625037760e-05
117  7.37072365647538336e-05
118 -4.77985196919041672e-05
119  1.06682898733916304e-03
120  4.78550134698474839e-03
121  5.55744403641383173e-04
122  1.78148933755005760e-03
123 -1.03983554520778589e-04
124  6.94831693817431380e-04
125  1.06763712380843491e-04
126  8.36802461184952520e-05
127 -2.08916584011335701e-04
128 -4.44802767530945540e-04
129 -5.39976328674280563e-04
130 -5.10418094710846050e-04
131 -2.38909185374908470e-04
132 -9.88945541454311805e-05
133  4.03732433985025450e-04
134 -6.45344250804553212e-05
135  5.44385320576236441e-04
136  1.98305713729471730e-04
137 -8.57364964479411158e-04
138 -2.20736948460452127e-03
139 -2.23872985253033036e-04
140  4.19281917038128620e-04
141  1.56462345916786694e-03
142  5.62662023235193948e-04
143 -6.03574265663934920e-04
144 -2.80897858940668107e-04
145  2.40597783090974716e-04
146  2.18386824801594800e-04
147 -3.91500494503235763e-03
148  1.95793911501320134e-03
149 -2.04101217290413028e-03
150 -1.89046202698383344e-03
151  1.65639652066420368e-04
152  3.59630660063057920e-04
153  1.52960396999334881e-04
154  1.47010958838669260e-04
155 -1.60704466319508112e-04
156  3.83115765779403004e-04
 Sym= A
 Ene= -1.01721135058807146e+01
 Spin= Alpha
 Occup=  1.00000000000000000e+00
  1 -8.68681869650358019e-06
  2  6.46192853985065032e-05
  3 -2.18465360291140031e-05
  4 -1.06558605176920303e-06
  5 -3.71334516604830873e-05
  6 -3.44968670923066908e-04
  7  3.51447075632882239e-04
  8 -3.76741638361349617e-06
  9  4.23174941755263573e-04
 10 -4.58347893982048390e-04
 11  5.33660272978895601e-04
 12  2.90399494022879838e-04
 13  6.55132296989555910e-07
 14 -9.70087808553235335e-05
 15 -2.28036667923153346e-04
 16  5.20342444007800334e-05
 17  1.84275652665601916e-05
 18  6.38266702205494270e-06
 19  6.77955476531055898e-03
 20 -1.08184525712911391e-03
 21  6.89511399971588692e-04
 22 -6.40050517778477466e-03
 23 -3.25620678685600398e-05
 24 -1.75981232127240953e-04
 25  9.81098605012455409e-05
 26  9.72686971159598246e-05
 27  1.63171846209514014e-04
 28 -2.08124382462857434e-04
 29 -2.87344380612728060e-05
 30 -8.30117481300600538e-05
 31 -3.66551823869256191e-04
 32  1.33377238285855345e-03
 33  1.61625622340832661e-04
 34  3.93842743154126820e-04
 35  3.31487120352651557e-04
 36 -5.34102074925210299e-04
 37 -2.22005268040324744e-04
 38  4.71988540307933074e-05
 39  6.23131530989173821e-04
 40  1.65492494576609451e-04
 41  2.70200305992316332e-05
 42 -3.40453075770587668e-04
 43 -1.19170402093032887e-04
 44 -1.67977552557320893e-02
 45 -2.65901052317485962e-03
 46  4.78723171199074533e-05
 47 -3.53751945983778312e-03
 48 -8.58301271043301363e-05
 49 -7.37893591601098504e-05
 50  8.19615166251313598e-04
 51 -2.16975217932281896e-04
 52  2.77457165551086725e-04
 53 -6.04853635237616555e-04
 54  1.46056211949074044e-05
 55  7.68738898581830077e-04
 56 -1.55516715558150567e-03
 57  3.27558507945531876e-03
 58 -8.24437627385642808e-05
 59 -4.26694351922356132e-03
 60  9.01687459790896412e-04
 61 -2.69955933697524461e-04
 62  4.54477993988183218e-04
 63  2.83111188763865733e-03
 64 -1.78437200740106132e-03
 65  2.12643916223892102e-03
 66 -9.71414386041971481e-05
 67 -2.93558160403551360e-04
 68  1.90113712611985697e-04
 69 -8.57503842174213785e-03
 70  1.79131789598757640e-03
 71 -5.77400169147609596e-04
 72 -3.84622692508289094e-04
 73 -2.85770269694675090e-04
 74  2.07399244777312227e-04
 75  1.61875182948989309e-03
 76  5.62873177163928928e-01
 77  4.63386148175034485e-01
 78 -5.05944293660040762e-04
 79 -2.20444352759404992e-05
 80  5.26655448163045091e-04
 81  1.86944374856244794e-02
 82  3.04481596161605477e-03
 83  8.19298920005012211e-05
 84 -3.16762399969002439e-03
 85 -1.35242801517933674e-02
 86 -3.39445833278959530e-03
 87 -6.66902238819269623e-04
 88  2.71447840515406805e-04
 89  1.66726159111284808e-03
 90 -1.50819932651997013e-03
 91  2.21915117430064769e-04
 92  6.34689995002556931e-04
 93 -1.59810823979718985e-06
 94  1.63217776132198768e-02
 95  4.39428995582185049e-03
 96  1.49939559715944162e-03
 97 -1.91085943508987927e-03
 98  3.01957372247522624e-04
 99 -8.48381917541155082e-04
100  1.43926219454699653e-03
101  5.39976397995741353e-04
102  5.10418151790738945e-04
103 -2.38909185730637181e-04
104 -9.88945543141689663e-05
105 -4.03732434642099130e-04
106  6.45344288085749409e-05
107  5.44385322066990359e-04
108  1.98305714362332166e-04
109  8.57364967454304710e-04
110  2.20736946786801629e-03
111 -2.23872983922313268e-04
112  4.19281917198030280e-04
113 -1.56462345353605183e-03
114 -5.62662024101216480e-04
115 -6.03574266375842233e-04
116 -2.80897859660800232e-04
117 -2.40597783201070893e-04
118 -2.18386824596407208e-04
119  3.91500481081145588e-03
120  1.95793903450077996e-03
121 -2.04101212348825004e-03
122  1.89046190001688802e-03
123 -1.65639652027462544e-04
124 -3.59630659639605956e-04
125 -1.52960389797706238e-04
126 -1.47010958448309342e-04
127  1.60704464041364807e-04
128 -3.83115748372279518e-04
129 -3.35047584455262960e-05
130  3.40311395112092053e-05
131 -5.60112885646509370e-05
132 -8.63559862617179845e-06
133  1.39175227994577920e-05
134 -4.06445473490127656e-04
135  3.29948378517682631e-04
136 -1.08612619477385702e-05
137  4.56993901266643083e-05
138  6.97436886616151219e-04
139 -6.49619152253123671e-04
140 -9.27868842819543961e-04
141 -4.58283304166815029e-04
142  9.78302501024815480e-05
143  1.06283404235140870e-04
144  3.44548901282507565e-05
145 -7.37072370926833268e-05
146  4.77985197237758351e-05
147 -1.06682866483973852e-03
148  4.78550115969391364e-03
149  5.55744424587308831e-04
150 -1.78148930589303923e-03
151  1.03983553792907972e-04
152 -6.94831691446874396e-04
153 -1.06763754724124865e-04
154 -8.36802472838203991e-05
155  2.08916590284557687e-04
156  4.44802735060735100e-04
 Sym= A
 Ene= -1.01694744134463964e+01
 Spin= Alpha
 Occup=  1.00000000000000000e+00
  1 -1.17230148633083679e-04
  2 -1.11151523464102736e-05
  3 -4.64855038907247182e-05
  4 -1.28255253939560126e-05
  5 -9.53719669807084696e-05
  6 -3.72431678101458989e-04
  7  5.37718151391869707e-04
  8  4.58655694770585836e-05
  9  7.83282007336176533e-04
 10 -3.41735473827434839e-03
 11  1.58296665411405209e-03
 12  1.82525252810130636e-04
 13 -4.03386878322086221e-04
 14 -1.55288291629851732e-04
 15 -4.10916921929981678e-04
 16 -3.52202246642010052e-05
 17  2.59543291134665372e-05
 18  3.78634931520887587e-05
 19  5.61513198708591017e-03
 20 -1.19208275374240065e-03
 21  4.63154147597198750e-04
 22 -3.18453223271958829e-03
 23 -5.56513441959550015e-05
 24 -2.13435700257486022e-04
 25  2.51494289597278559e-04
 26 -2.90178129085981696e-05
 27  6.13573695450310257e-05
 28 -6.37054937519444743e-04
 29 -7.74129646113012594e-05
 30 -8.22964713227050801e-05
 31  1.09903897972196348e-05
 32  2.03971468090297396e-03
 33  2.08184296696083972e-04
 34  5.57718965147665363e-04
 35  4.70079294246492085e-03
 36 -2.75199350835074116e-03
 37 -5.19820073241924834e-04
 38  2.73921951251303265e-03
 39  8.15364978718186094e-04
 40  1.89427162154574830e-04
 41 -9.02923268839365132e-05
 42 -9.19233042103668628e-04
 43 -3.50470310634334468e-04
 44 -1.97628639330190911e-02
 45  1.08360103569459768e-03
 46 -9.00456571498606739e-05
 47 -2.44366242519064494e-03
 48 -1.79173373817273306e-04
 49  3.75337868198349911e-04
 50  1.67749527937515212e-03
 51  5.62866588339011931e-01
 52  4.63348428819114200e-01
 53  1.72296486903838109e-04
 54 -6.88557689423538997e-05
 55 -6.55312965864966366e-04
 56  1.88310249035394013e-02
 57 -7.89839880266979613e-04
 58  3.64600759353026448e-04
 59  3.90296093583937260e-03
 60 -1.48936691837994028e-02
 61 -2.18524649749811005e-03
 62 -6.31246291904241142e-04
 63 -3.96310300610277621e-03
 64  9.20972281533713162e-04
 65 -1.72502689173708863e-03
 66  1.04449134065292941e-04
 67  1.14749263997536086e-03
 68  1.35342778559172257e-04
 69  2.63014557562371853e-02
 70  2.37655336391013336e-03
 71  8.98597499709307898e-04
 72  5.98350140712390101e-03
 73  3.49103494885965400e-04
 74 -1.03375375596138799e-03
 75  1.06860800783517974e-03
 76 -1.26296033652660992e-05
 77  4.44171800845454120e-04
 78  4.06000800418013718e-04
 79 -4.70833248199049851e-05
 80 -8.17801477012108577e-04
 81 -1.49762240435241385e-03
 82 -2.22886094512709946e-03
 83  2.32397130610447389e-04
 84  4.36752189147814572e-03
 85  2.02151118435516496e-03
 86  2.86083404263652369e-03
 87  8.49076729563170740e-05
 88 -1.14919601529941138e-03
 89 -1.41701629077748900e-03