[Molden Format]
[Atoms] (AU)
C    1    6         2.688203947216       0.126267316038      -0.211284584910
H    2    1         4.728095907479       0.359456870713      -0.218011119477
C    3    6         1.369782617967       0.204435981782      -2.374855666231
H    4    1         2.318345438850       0.530982748944      -4.165937681460
C    5    6        -1.369782617967      -0.204435981782      -2.374855666231
H    6    1        -2.318345438850      -0.530982748944      -4.165937681460
C    7    6        -2.688203947216      -0.126267316038      -0.211284584910
H    8    1        -4.728095907290      -0.359456870902      -0.218011119477
C    9    6        -1.377448045575       0.458746757807       2.255586404767
H   10    1        -1.428727068278       2.518961490447       2.552818698465
H   11    1        -2.401900037590      -0.368832778254       3.849461186775
C   12    6         1.377448045575      -0.458746757807       2.255586404767
H   13    1         1.428727068278      -2.518961490069       2.552818698465
H   14    1         2.401900037401       0.368832778065       3.849461186397
[GTO]
  1 0
 s    6  1.00
     4563.2400000000         0.0019666500
      682.0240000000         0.0152306000
      154.9730000000         0.0761269000
       44.4553000000         0.2608010000
       13.0290000000         0.6164620000
        1.8277300000         0.2210060000
 s    3  1.00
       20.9642000000         0.1146600000
        4.8033100000         0.9199990000
        1.4593300000        -0.0030306800
 p    3  1.00
       20.9642000000         0.0402487000
        4.8033100000         0.2375940000
        1.4593300000         0.8158540000
 s    1  1.00
        0.4834560000         1.0000000000
 p    1  1.00
        0.4834560000         1.0000000000
 s    1  1.00
        0.1455850000         1.0000000000
 p    1  1.00
        0.1455850000         1.0000000000
 d    1  1.00
        0.6260000000         1.0000000000
 s    1  1.00
        0.0438000000         1.0000000000
 p    1  1.00
        0.0438000000         1.0000000000

  2 0
 s    3  1.00
       33.8650000000         0.0254938000
        5.0947900000         0.1903730000
        1.1587900000         0.8521610000
 s    1  1.00
        0.3258400000         1.0000000000
 s    1  1.00
        0.1027410000         1.0000000000

  3 0
 s    6  1.00
     4563.2400000000         0.0019666500
      682.0240000000         0.0152306000
      154.9730000000         0.0761269000
       44.4553000000         0.2608010000
       13.0290000000         0.6164620000
        1.8277300000         0.2210060000
 s    3  1.00
       20.9642000000         0.1146600000
        4.8033100000         0.9199990000
        1.4593300000        -0.0030306800
 p    3  1.00
       20.9642000000         0.0402487000
        4.8033100000         0.2375940000
        1.4593300000         0.8158540000
 s    1  1.00
        0.4834560000         1.0000000000
 p    1  1.00
        0.4834560000         1.0000000000
 s    1  1.00
        0.1455850000         1.0000000000
 p    1  1.00
        0.1455850000         1.0000000000
 d    1  1.00
        0.6260000000         1.0000000000
 s    1  1.00
        0.0438000000         1.0000000000
 p    1  1.00
        0.0438000000         1.0000000000

  4 0
 s    3  1.00
       33.8650000000         0.0254938000
        5.0947900000         0.1903730000
        1.1587900000         0.8521610000
 s    1  1.00
        0.3258400000         1.0000000000
 s    1  1.00
        0.1027410000         1.0000000000

  5 0
 s    6  1.00
     4563.2400000000         0.0019666500
      682.0240000000         0.0152306000
      154.9730000000         0.0761269000
       44.4553000000         0.2608010000
       13.0290000000         0.6164620000
        1.8277300000         0.2210060000
 s    3  1.00
       20.9642000000         0.1146600000
        4.8033100000         0.9199990000
        1.4593300000        -0.0030306800
 p    3  1.00
       20.9642000000         0.0402487000
        4.8033100000         0.2375940000
        1.4593300000         0.8158540000
 s    1  1.00
        0.4834560000         1.0000000000
 p    1  1.00
        0.4834560000         1.0000000000
 s    1  1.00
        0.1455850000         1.0000000000
 p    1  1.00
        0.1455850000         1.0000000000
 d    1  1.00
        0.6260000000         1.0000000000
 s    1  1.00
        0.0438000000         1.0000000000
 p    1  1.00
        0.0438000000         1.0000000000

  6 0
 s    3  1.00
       33.8650000000         0.0254938000
        5.0947900000         0.1903730000
        1.1587900000         0.8521610000
 s    1  1.00
        0.3258400000         1.0000000000
 s    1  1.00
        0.1027410000         1.0000000000

  7 0
 s    6  1.00
     4563.2400000000         0.0019666500
      682.0240000000         0.0152306000
      154.9730000000         0.0761269000
       44.4553000000         0.2608010000
       13.0290000000         0.6164620000
        1.8277300000         0.2210060000
 s    3  1.00
       20.9642000000         0.1146600000
        4.8033100000         0.9199990000
        1.4593300000        -0.0030306800
 p    3  1.00
       20.9642000000         0.0402487000
        4.8033100000         0.2375940000
        1.4593300000         0.8158540000
 s    1  1.00
        0.4834560000         1.0000000000
 p    1  1.00
        0.4834560000         1.0000000000
 s    1  1.00
        0.1455850000         1.0000000000
 p    1  1.00
        0.1455850000         1.0000000000
 d    1  1.00
        0.6260000000         1.0000000000
 s    1  1.00
        0.0438000000         1.0000000000
 p    1  1.00
        0.0438000000         1.0000000000

  8 0
 s    3  1.00
       33.8650000000         0.0254938000
        5.0947900000         0.1903730000
        1.1587900000         0.8521610000
 s    1  1.00
        0.3258400000         1.0000000000
 s    1  1.00
        0.1027410000         1.0000000000

  9 0
 s    6  1.00
     4563.2400000000         0.0019666500
      682.0240000000         0.0152306000
      154.9730000000         0.0761269000
       44.4553000000         0.2608010000
       13.0290000000         0.6164620000
        1.8277300000         0.2210060000
 s    3  1.00
       20.9642000000         0.1146600000
        4.8033100000         0.9199990000
        1.4593300000        -0.0030306800
 p    3  1.00
       20.9642000000         0.0402487000
        4.8033100000         0.2375940000
        1.4593300000         0.8158540000
 s    1  1.00
        0.4834560000         1.0000000000
 p    1  1.00
        0.4834560000         1.0000000000
 s    1  1.00
        0.1455850000         1.0000000000
 p    1  1.00
        0.1455850000         1.0000000000
 d    1  1.00
        0.6260000000         1.0000000000
 s    1  1.00
        0.0438000000         1.0000000000
 p    1  1.00
        0.0438000000         1.0000000000

  10 0
 s    3  1.00
       33.8650000000         0.0254938000
        5.0947900000         0.1903730000
        1.1587900000         0.8521610000
 s    1  1.00
        0.3258400000         1.0000000000
 s    1  1.00
        0.1027410000         1.0000000000

  11 0
 s    3  1.00
       33.8650000000         0.0254938000
        5.0947900000         0.1903730000
        1.1587900000         0.8521610000
 s    1  1.00
        0.3258400000         1.0000000000
 s    1  1.00
        0.1027410000         1.0000000000

  12 0
 s    6  1.00
     4563.2400000000         0.0019666500
      682.0240000000         0.0152306000
      154.9730000000         0.0761269000
       44.4553000000         0.2608010000
       13.0290000000         0.6164620000
        1.8277300000         0.2210060000
 s    3  1.00
       20.9642000000         0.1146600000
        4.8033100000         0.9199990000
        1.4593300000        -0.0030306800
 p    3  1.00
       20.9642000000         0.0402487000
        4.8033100000         0.2375940000
        1.4593300000         0.8158540000
 s    1  1.00
        0.4834560000         1.0000000000
 p    1  1.00
        0.4834560000         1.0000000000
 s    1  1.00
        0.1455850000         1.0000000000
 p    1  1.00
        0.1455850000         1.0000000000
 d    1  1.00
        0.6260000000         1.0000000000
 s    1  1.00
        0.0438000000         1.0000000000
 p    1  1.00
        0.0438000000         1.0000000000

  13 0
 s    3  1.00
       33.8650000000         0.0254938000
        5.0947900000         0.1903730000
        1.1587900000         0.8521610000
 s    1  1.00
        0.3258400000         1.0000000000
 s    1  1.00
        0.1027410000         1.0000000000

  14 0
 s    3  1.00
       33.8650000000         0.0254938000
        5.0947900000         0.1903730000
        1.1587900000         0.8521610000
 s    1  1.00
        0.3258400000         1.0000000000
 s    1  1.00
        0.1027410000         1.0000000000

[5D]
[9G]

[MO]
 Sym= A
 Ene= -1.37541400796786260e+01
 Spin= Alpha
 Occup=  1.00000000000000000e+00
  1  4.01829606956028587e-05
  2 -2.47575032148490617e-04
  3  1.02119502584188733e-04
  4  4.69557777638154015e-05
  5 -3.45017400392670388e-04
  6  1.29721998586165106e-03
  7 -1.14872837834101489e-03
  8 -1.64114402026798470e-04
  9  1.60343288737156307e-03
 10  7.22851577522556736e-03
 11 -1.85100696712763653e-03
 12 -5.61505907870066788e-04
 13 -1.56596372540615471e-03
 14  7.03131289847270169e-04
 15 -5.06978467677150855e-04
 16 -4.12536204657173311e-05
 17 -5.23156066445284811e-04
 18  6.11440004792250134e-04
 19  3.91493189386662721e-02
 20 -6.47892371273883771e-03
 21 -1.32585917176402269e-04
 22  1.55168853162772919e-02
 23  2.69670365849442224e-04
 24  1.29689220913661006e-04
 25 -1.67227361715534327e-03
 26  4.64988501899187115e-05
 27 -2.93002918191151581e-04
 28  2.00938962948842633e-04
 29 -8.85705201510452697e-05
 30 -1.17238407225333767e-04
 31  2.16358236878743228e-03
 32 -1.15104407898717026e-03
 33  2.60399305073345138e-04
 34  9.50804590330045669e-04
 35 -1.31100190158075381e-02
 36  5.84106528861036943e-03
 37  9.69643480542736530e-04
 38 -7.31398654627330759e-03
 39 -2.94957214500119369e-04
 40 -1.28614091276384019e-05
 41  1.99299855302527008e-05
 42 -7.78913522649673894e-05
 43  1.43334358051014788e-04
 44 -3.36894087583043539e-02
 45  1.39389144056423098e-02
 46 -1.86544200049512805e-05
 47 -4.41977844294504357e-03
 48  3.46310486071484559e-04
 49 -1.25694650546729638e-03
 50 -2.92967366692196713e-03
 51  7.52258000920779166e-05
 52 -4.05063618570376284e-04
 53  3.89605496106950559e-04
 54 -7.26827935903343226e-05
 55 -3.99285296481395569e-04
 56  1.99966388203019069e-03
 57 -2.61432924471691761e-03
 58  4.57029870555622237e-04
 59  4.02372453130787032e-03
 60  1.17135457256952250e-02
 61  8.67643969176137321e-03
 62  8.81643874227470677e-04
 63  6.07615822886545254e-03
 64  1.28222095462754708e-03
 65 -1.69166458895407502e-03
 66 -1.42099399903790173e-04
 67 -3.56758259509382830e-04
 68 -4.53155983733816690e-04
 69  8.87021652157114759e-02
 70  4.13340088244239321e-03
 71  3.92089683181786035e-03
 72  1.30363739272097851e-02
 73  1.43911568479729990e-04
 74  2.13473076241710129e-03
 75 -5.58010368014885444e-04
 76  6.20606938057247440e-05
 77 -4.14298558164547524e-04
 78 -6.76603155099586291e-04
 79 -3.87003313836769744e-04
 80 -2.23887382397622466e-03
 81  7.71985727181463796e-04
 82  1.43857397288306888e-03
 83  1.39952206697321912e-03
 84  9.22947036019611429e-03
 85 -2.40951331046495507e-02
 86 -1.39939712064831977e-02
 87 -3.18039875030094255e-03
 88 -1.24044843189737453e-02
 89  1.86717965864986539e-03
 90  4.89884573436518821e-03
 91  1.37337843674108012e-03
 92 -7.28868902180151144e-05
 93  5.94036455532489485e-04
 94 -6.47671745244162989e-02
 95 -1.32779661983270549e-02
 96 -2.83835295579341158e-03
 97  9.36831053951472578e-03
 98  7.16398083219797733e-04
 99 -8.49725388944286677e-04
100 -4.31996723912416673e-03
101  6.24369247072638078e-01
102  4.20000529447426663e-01
103  2.71685572092456495e-04
104 -5.01527633992724623e-04
105 -1.11133535699920144e-03
106 -5.56981305592854359e-02
107 -1.64796224605388451e-03
108  2.51364687437884583e-03
109  5.17389504074734080e-03
110  8.24051557737090629e-02
111  3.93718929129992148e-03
112 -3.13847438608128851e-03
113 -9.56767269982958246e-03
114 -5.51093578284485731e-04
115 -1.89553305913456966e-03
116 -6.45740614302964516e-04
117 -1.58880279479963285e-03
118  3.80538975405794472e-04
119  3.54434100417373027e-02
120  4.92646212506317460e-03
121  3.15795390161525708e-03
122 -2.48615949197136766e-03
123  1.35441445913806759e-03
124 -4.36977755517521226e-03
125 -1.30241940882047120e-02
126  1.21073917991900673e-03
127 -3.35106642936259776e-03
128 -1.16281058035083533e-02
129  7.59641953379203247e-05
130 -4.88541615652035425e-04
131  1.72518231742475013e-03
132 -5.59668811175493999e-04
133 -2.12769093972848948e-04
134  1.61588804661019596e-03
135 -5.18166183310194220e-03
136  1.64872632465430961e-03
137  9.81156448703042559e-04
138 -2.11174843151105754e-02
139  9.64503161451817428e-03
140 -4.47837146198946413e-03
141 -3.44498107741997447e-04
142 -2.08298539040818569e-03
143  4.94936194856813376e-04
144  2.40046880577480940e-04
145  2.83886330993772919e-03
146 -2.17988354532368993e-03
147 -5.68923328697159350e-02
148 -4.32811651239410448e-03
149 -8.11226715992876754e-03
150  9.38399187640214481e-03
151  6.84807162066261837e-04
152  1.18795389600680505e-03
153 -1.47860278449928962e-03
154  3.74777889211971274e-04
155  1.88139991663802738e-03
156  1.81869202088764882e-03
 Sym= A
 Ene= -1.14818881585895820e+01
 Spin= Alpha
 Occup=  1.00000000000000000e+00
  1  3.00640498268294181e-03
  2  2.43448245787022130e-03
  3 -5.11107396894363401e-05
  4 -3.53416073224122965e-05
  5  1.34902668334257298e-04
  6  2.61107901667806939e-04
  7 -1.45781693950687650e-04
  8 -1.19800210188057472e-05
  9  1.55148404002383196e-04
 10  8.00215354073250274e-04
 11 -2.03859515552911669e-04
 12 -1.35235221688860806e-04
 13  5.41517585667832088e-04
 14  2.52825337658319043e-05
 15 -7.38903983999798076e-05
 16 -5.93715673866580354e-06
 17  4.05284991106720651e-05
 18  5.64347478463143115e-06
 19  4.13695898790073218e-03
 20 -8.64265853408734109e-04
 21 -8.95168481103511689e-05
 22  1.31321016075790600e-04
 23 -7.49734903893334941e-06
 24 -2.88604205331193864e-05
 25  1.08513744322663050e-05
 26 -2.96440361506897681e-05
 27 -2.22444679371412913e-05
 28  1.73607371739500602e-06
 29 -1.58473865299404978e-06
 30  1.84269949679198092e-06
 31 -9.52077299916504729e-06
 32 -1.26648567801687230e-05
 33  9.95544170631842837e-06
 34 -3.53692363001397876e-05
 35 -8.96347997979980693e-05
 36  2.40878414716251771e-04
 37  1.95518790071274985e-05
 38 -5.32372618733837282e-05
 39 -9.33007122782058155e-06
 40 -1.00613864671337347e-06
 41 -8.54219763729786500e-06
 42  5.17487080561666463e-06
 43  6.63372886407833805e-06
 44 -4.33350030201706555e-03
 45  5.64983722438263747e-04
 46  1.37002997664705895e-04
 47 -5.54788321646136010e-04
 48  5.83521308675130624e-06
 49 -4.15509808915759716e-05
 50  5.65633802024119870e-05
 51 -4.83375258329289383e-05
 52 -3.93249766857299099e-05
 53  4.92342577940850681e-06
 54 -1.63190816800960004e-06
 55 -3.18533607387423807e-06
 56 -1.65545003681337653e-05
 57 -4.25120816015744853e-05
 58  1.18929687874760349e-05
 59  2.32301083736256722e-05
 60  3.27475312298440558e-04
 61  1.75838691402308879e-04
 62  1.68502681812388700e-05
 63  1.43795524453888332e-04
 64  1.87103648382757018e-05
 65 -1.38469182157189345e-05
 66 -5.75068437281352296e-06
 67  9.86433081326542033e-07
 68 -3.92809616797385654e-06
 69  2.83794116649751854e-03
 70  6.82671246068940435e-04
 71  7.52045035961585015e-05
 72  2.59427581191620012e-04
 73 -4.81405958996670096e-06
 74  3.76577896014424938e-05
 75  7.25264516675131353e-06
 76 -8.59815188567754178e-05
 77 -7.37384850517736940e-05
 78  2.49782564513514432e-06
 79 -6.97215039102311729e-06
 80 -1.28506179889661197e-05
 81  1.84934885429380206e-06
 82 -2.65713327187442967e-05
 83  3.06906685451940710e-05
 84  7.37394925595134874e-05
 85 -3.34817359780954327e-04
 86 -1.50793766250117696e-04
 87 -5.27065246063098224e-05
 88 -6.35512673409199520e-05
 89  2.31628865166110864e-05
 90  4.20405606008010142e-05
 91  1.36071950667373130e-05
 92 -7.13174542051264452e-06
 93  3.71793356800803222e-06
 94 -1.39409312624234069e-03
 95 -3.09918712669784036e-04
 96 -2.13018168346626616e-05
 97 -2.44728603823036377e-04
 98  6.40112185215461196e-06
 99 -3.83132870387096808e-06
100 -1.50739093191297267e-05
101 -1.14212992822532991e-04
102 -1.66960490253439042e-04
103  9.76949689630792238e-05
104 -4.00979418919982197e-05
105 -3.91134334032311027e-06
106  3.36848950931106263e-04
107  7.10883551381492375e-04
108 -2.04774386861833029e-04
109  2.45670836233757483e-05
110  1.19036610183071248e-03
111  2.96704967364807572e-04
112 -1.19927329939540470e-04
113 -1.01718764844981678e-04
114 -2.04237539876933323e-04
115 -3.26873517799313639e-05
116  4.19189874854126311e-06
117  2.60382310815335249e-04
118 -1.98335811311750533e-04
119  2.88654595802296642e-03
120  2.99378093781703532e-04
121 -2.82717521356731587e-04
122 -1.54539305994514509e-04
123  2.97305479018707492e-05
124 -1.04234496400504800e-04
125 -1.43964245902985965e-05
126  3.24683314452799487e-05
127 -7.95096516236329961e-05
128 -1.19098604047752888e-04
129  5.63471275237077962e-01
130  4.66571062005068482e-01
131 -1.28278409978980091e-03
132  4.68629262813052871e-04
133 -1.20409383263517296e-04
134  4.12954156329290410e-03
135  1.13164336926289922e-03
136 -4.14224590518959236e-04
137  1.03454344960840074e-04
138 -2.97466962051608089e-03
139 -3.07799039974926132e-04
140  1.25525531000853445e-06
141  2.35050733178680305e-04
142  2.45798172397551726e-04
143  2.46689116282737294e-05
144  3.68158884683238133e-05
145 -3.82355065004211345e-04
146  2.83311589265815462e-04
147 -4.61507459621648443e-03
148  4.76421808293257560e-04
149 -2.50439059104648617e-04
150  4.38533298657215560e-04
151  3.01925818514965638e-04
152  1.49651403507907935e-04
153  7.85486748385560507e-04
154  3.05686770364513012e-04
155  1.36587735961153672e-04
156  8.06195114268317141e-04
 Sym= A
 Ene= -1.14631189771027007e+01
 Spin= Alpha
 Occup=  1.00000000000000000e+00
  1 -9.69789904769038967e-05
  2 -7.96844119195853874e-05
  3  2.63059458100981795e-06
  4  2.28052241074242247e-06
  5 -8.26513040172891455e-06
  6  1.48014802719178616e-05
  7  8.17336662953245966e-06
  8 -6.55087641314255493e-06
  9  5.99179369070501744e-05
 10 -2.84445913160208343e-04
 11  2.51636604165920161e-04
 12  5.08274825139753825e-05
 13 -8.44030628566745617e-06
 14 -1.53796187491699057e-06
 15 -3.07627660924228446e-05
 16 -1.66249535576251473e-07
 17 -5.60602596552721305e-06
 18  8.21984567029181166e-06
 19  2.26696618350376907e-03
 20 -3.67375390103485511e-04
 21  6.37655373225974506e-05
 22 -8.66998822952434940e-04
 23  3.93364541963257228e-06
 24 -3.69862151967554430e-05
 25 -9.50241240864415379e-05
 26  4.73471941716666392e-05
 27  4.00622348463064272e-05
 28 -9.58939110378317477e-06
 29 -2.32540968799728758e-06
 30 -1.25289242494429023e-05
 31 -7.20808896727376355e-06
 32  6.12523023754317839e-05
 33  1.05640639530239738e-05
 34  5.53838657613422097e-05
 35  4.98005652247609804e-04
 36 -1.77030540065381580e-04
 37 -5.93408192097357641e-05
 38  1.25545266116916418e-04
 39  4.17523538291527814e-05
 40 -2.34808398511567997e-06
 41 -3.77715584623893205e-06
 42 -1.82167050658762544e-05
 43 -7.76893100526458512e-06
 44 -4.54271974309931621e-03
 45 -3.28478919853865327e-05
 46  4.54334980917575604e-05
 47 -7.67311088646156834e-04
 48 -4.47253134769808671e-06
 49  3.75834981767087450e-06
 50  1.36465906073674750e-04
 51  1.76119849371486753e-02
 52  1.45698618534427296e-02
 53 -1.54387017797065577e-04
 54  7.90217567792491518e-06
 55  2.34837447020462206e-04
 56  1.89830973391561951e-04
 57  2.90331539555246682e-04
 58 -7.69438810042485754e-07
 59 -3.67520072891501298e-04
 60 -4.29373576233646990e-04
 61 -3.80932488811931095e-04
 62 -3.28468406504381670e-05
 63  1.37082795212142767e-05
 64 -1.24180014575529443e-04
 65  1.37782673619050436e-04
 66 -1.77533053887704319e-05
 67 -1.06640433505988819e-04
 68 -1.40452961133106263e-05
 69  7.26313383157410120e-04
 70  6.88955418035733084e-04
 71  6.46130734680346475e-05
 72  2.67367865308000346e-04
 73  3.10301455863567224e-06
 74 -4.02475779152197647e-05
 75  4.51581799895527729e-05
 76  5.63112052707311017e-01
 77  4.66347691581246060e-01
 78  6.09479536247148259e-04
 79  3.00212373262603177e-04
 80  1.56137889476516429e-03
 81  4.17737772272401987e-03
 82 -2.18023801583937975e-04
 83 -2.67722887063119542e-04
 84 -1.88280638251740891e-03
 85 -7.88275013409444518e-04
 86  2.69315265451120888e-04
 87  8.52865235719851069e-05
 88  6.29329973788098963e-04
 89  3.11144768868639967e-05
 90 -7.38767394042980411e-04
 91 -8.80275373908093585e-05
 92  2.23995165757528823e-04
 93 -4.67183592491396686e-05
 94 -3.89198097635185591e-05
 95  4.10949890295361276e-04
 96  1.19129211054366452e-05
 97 -9.73316818426818290e-04
 98  3.43424839364838157e-04
 99 -1.17710079386896589e-04
100  5.99358826597225051e-04
101 -1.21899423382738827e-04
102 -1.94273090504637681e-04
103 -4.21691390079899288e-05
104 -3.47145255552904085e-05
105 -1.03974477425796438e-04
106  5.15053552273910431e-04
107 -4.22105921214247447e-04
108 -1.37946488958837134e-04
109 -6.92926243289983387e-04
110 -2.15109551906420152e-05
111  1.42711166111214772e-04
112  1.15036144770654477e-04
113  1.13022542224527569e-04
114  2.70161917397194118e-04
115  2.86450793937070326e-04
116  1.31862266478069109e-04
117 -4.79539688518086048e-06
118  7.07143683467997857e-05
119  1.99681485328552944e-03
120 -2.90768771074127405e-04
121 -3.45597868036522386e-04
122 -1.31120540192614441e-04
123  1.36567423121725298e-05
124 -3.96467836225793211e-05
125 -1.57073945325021148e-04
126  2.72650804052869553e-05
127  6.16427156988155371e-05
128 -2.57317123274689952e-04
129  9.20220164282957025e-05
130  6.86661537243141715e-05
131  1.68545201873976953e-05
132 -1.14388296830593989e-05
133 -3.00059182999083968e-06
134  1.08978715945299050e-05
135 -7.77310548518286506e-05
136  4.78976248409206958e-05
137  2.20362509448735613e-05
138  1.19361286027515920e-04
139  1.50829476275805760e-05
140 -1.06793713530941098e-04
141 -7.05337343277316891e-05
142 -4.35197283764654936e-05
143 -4.22285481514547784e-06
144 -8.43903537975521343e-06
145  2.53666726613431072e-05
146 -4.01009836054449760e-05
147 -1.90051808129417578e-04
148  5.07043548113813333e-04
149  1.48240329246030915e-04
150 -2.35745535335175908e-05
151  1.47619409315540142e-05
152 -7.29389390025400694e-05
153 -2.12102689276136361e-05
154  8.91883718582548078e-06
155  2.63374614021322356e-05
156 -4.18583285055385926e-05
 Sym= A
 Ene= -1.14371267971037813e+01
 Spin= Alpha
 Occup=  1.00000000000000000e+00
  1  2.92489669085447906e-04
  2  2.32130283257394199e-04
  3  6.06609403181397863e-06
  4 -4.55119939372215696e-06
  5  7.47495038992138120e-06
  6  6.62532272263198632e-05
  7 -4.29508810511737704e-05
  8  1.53811084227918600e-05
  9 -7.09146258894639061e-05
 10 -2.82294080326633845e-04
 11  1.53311275400386520e-04
 12  3.84423849825731683e-06
 13  6.02547676371292527e-05
 14 -2.50389348493077946e-06
 15  4.11008985776409685e-05
 16  2.26283619261474915e-06
 17  8.45068401046633024e-06
 18 -7.83145594731461416e-06
 19  7.63385264782179686e-04
 20 -7.98028628391863227e-05
 21  1.08749787476721213e-04
 22 -8.55148117510601095e-04
 23  5.72203801207486231e-06
 24 -5.55549931884279171e-06
 25 -2.04481263011902889e-05
 26  9.05113921737657999e-03
 27  7.42304781813430022e-03
 28 -1.55137878334624205e-04
 29 -2.09650935067194674e-05
 30  6.87223625441060646e-06
 31  3.99914212580215062e-04
 32 -3.54200970240363953e-04
 33 -4.90440279245546297e-05
 34 -5.26703211395790496e-05
 35  2.51102356290186166e-04
 36 -3.01757153804699789e-05
 37 -1.48506502667005697e-05
 38  2.14705689813514915e-04
 39 -1.40783425835560102e-04
 40 -2.93305667854943878e-05
 41 -7.58264766466138380e-06
 42  8.84329941177236701e-05
 43  2.37650903693923760e-05
 44 -2.29338058210517897e-03
 45 -3.85845588600878381e-04
 46 -4.64580275888591365e-05
 47 -5.24010014120102324e-04
 48  1.23759407817439516e-05
 49  2.75838720193965585e-05
 50  7.49751602913728056e-05
 51  5.63009997216931457e-01
 52  4.66280426572106554e-01
 53  2.14787651275855079e-04
 54  5.32896757397109716e-06
 55  2.93450218437315637e-05
 56  4.21955940953513617e-03
 57 -3.83145603082820220e-04
 58  3.90501784579650757e-06
 59  3.16629520558940700e-04
 60 -8.30465497355700960e-04
 61 -9.45525577257208842e-05
 62 -2.92842417180129518e-05
 63 -1.80235481318406706e-04
 64  3.76681909253223841e-04
 65 -1.98407953638022607e-04
 66  9.23844991125065618e-05
 67  3.15507224664091719e-04
 68  6.12138045980598750e-05
 69  1.44206945941678395e-03
 70  2.02975543559803003e-04
 71  5.61073307852769467e-05
 72  6.98162174170505277e-04
 73  3.97598474954694427e-04
 74 -1.75801485710378987e-04
 75  3.29208782208710831e-04
 76 -1.78514732224044105e-02
 77 -1.48440384203903219e-02
 78  1.28410234231798317e-04
 79 -1.45198860966684717e-05
 80 -2.66847778795711529e-04
 81  1.45855988156309537e-04
 82 -6.76737914531284637e-06
 83  1.15728514921621496e-05
 84  1.14110389552086488e-04
 85 -1.77972719483390573e-05
 86  1.98291522651430614e-04
 87  8.35855301016174551e-06
 88 -1.19368943741929110e-05
 89 -6.64765031826758564e-05
 90 -7.33241885788843189e-07
 91 -2.91404300896839079e-05
 92 -1.02343884928850188e-04
 93 -3.01641295069640495e-05
 94 -1.40505031322576599e-03
 95 -1.37444316689433487e-04
 96  4.92328927237100855e-05
 97 -1.41906987744007103e-04
 98 -1.26534042715814743e-05
 99  3.21242477658985971e-05
100  9.12288097640167602e-05
101  1.06680731891834500e-05
102  8.15634160701251999e-06
103 -5.19526698592376231e-07
104  4.43351088225258382e-06
105  2.02389956656553565e-05
106  8.62018219810400238e-07
107  2.22103016144457866e-05
108 -1.54461070362640709e-06
109  3.15479384433140923e-06
110 -2.19928238144321170e-04
111 -6.99574531981898265e-05
112  8.52044106803452600e-05
113  8.62396650138759832e-05
114  1.45928702881997734e-06
115 -1.87423825804276020e-05
116 -2.94344522616335878e-06
117 -3.66844390926482679e-06
118  1.26325475677893301e-06
119  1.44204211160274933e-03
120  6.32491383373891280e-05
121 -2.81577562620596248e-04
122 -7.91015026075738060e-05
123 -5.72880115768147206e-07
124 -5.10401511796377638e-06
125 -8.26921350216819052e-05
126 -6.67939277966760269e-06
127  4.40457169566818650e-05
128 -1.24689060223151158e-04
129  4.67262931069687291e-05
130  3.93246955608168953e-05
131 -6.99365540469296979e-08
132 -2.15266393606434803e-06
133  7.95155290088917798e-06
134 -2.35161151542817060e-05
135  1.09709880358745043e-05
136  6.94190301274749630e-06
137 -2.36976418407008377e-05
138  2.36121276667899661e-04
139 -6.22593573640410164e-05
140 -1.07869431495105488e-05
141 -1.69841089855432586e-05
142  7.04359281382932389e-06
143 -8.79400009782089164e-06
144 -4.87155336989244219e-06
145  1.30964733459637969e-06
146  1.32102426749222331e-06
147  2.34458806887476753e-04
148  5.45527093784356986e-04
149  1.29782736162764156e-04
150 -1.75831550013751142e-04
151  7.82369255227785077e-06
152 -5.13409027656385364e-05
153  3.11056826149690582e-06
154  1.40037900550504735e-06
155 -4.78331532347717030e-06
156 -5.98289052758989388e-05
 Sym= A
 Ene= -1.14211466395093790e+01
 Spin= Alpha
 Occup=  1.00000000000000000e+00
  1 -5.61183544688510838e-01
  2 -4.64744453626933340e-01
  3  1.72300359391647912e-04
  4  9.14520503164116593e-05
  5 -6.18343160864934694e-04
  6 -4.16024734445378987e-03
  7  9.45390926213958747e-05
  8 -8.60142190129791596e-05
  9  8.95312850071951303e-04
 10  5.21688982031298480e-04
 11  1.56137741149007156e-05
 12 -1.60931015845901693e-05
 13 -2.02881240941972887e-04
 14 -2.43402822676537799e-04
 15 -4.00745348761383799e-04
 16  4.79982310571336823e-05
 17 -3.63571729661709125e-04
 18 -3.06585814833836302e-05
 19  4.72694427590076422e-04
 20  2.82740157148154698e-04
 21  1.20366441018262903e-04
 22  4.53509106754834679e-04
 23 -3.83702820762584342e-04
 24  1.48351421625422174e-04
 25 -3.90174296310178456e-04
 26 -4.94188875297418423e-02
 27 -4.08881029972516796e-02
 28 -9.62269909388365581e-05
 29  1.01104499712293697e-05
 30 -2.25223567965022244e-04
 31 -5.80155344817143430e-04
 32  6.00457646692414314e-05
 33 -4.02680383407850414e-06
 34  1.37175152654839982e-04
 35  4.18842401562688428e-04
 36 -7.14035579619603063e-05
 37  1.90072291574977357e-05
 38 -2.06338036609216827e-05
 39  4.88589837337763831e-05
 40  1.30721828779613989e-05
 41 -1.51644000651771745e-05
 42  9.69866131393466637e-05
 43  2.67310543934203729e-05
 44 -6.99181428917706473e-04
 45  2.52832586269571336e-04
 46 -2.38769625268689585e-05
 47 -4.13738308463223689e-04
 48 -3.44078131070919493e-05
 49  1.14516629406357666e-05
 50 -9.40324277204235834e-05
 51  1.09036364654153430e-03
 52  9.10559507626317413e-04
 53 -6.82989199516258576e-06
 54 -1.19125114839182109e-06
 55  9.92109377232301309e-06
 56 -1.90110867348452528e-05
 57 -2.78229820495573009e-05
 58 -1.54091911896424604e-06
 59 -3.10042641524957516e-05
 60 -2.99097196160885237e-04
 61 -2.86384142866143348e-05
 62 -3.20339850249511826e-05
 63 -1.18431087809866086e-04
 64 -5.60979001892642032e-06
 65 -2.29847870791476073e-05
 66 -3.77763275721221413e-06
 67 -2.97355418666688750e-06
 68  2.02731347985858175e-06
 69  3.57079349638280124e-03
 70 -3.51592283139463607e-04
 71  1.70434039868215915e-05
 72  7.62481232749731780e-04
 73  2.84952471455109241e-06
 74 -6.62776496459489311e-06
 75 -8.75833161903999852e-05
 76 -1.30202479036793276e-04
 77 -1.06123653894484065e-04
 78  4.41676608302236982e-06
 79  5.44826356295257215e-07
 80  7.09448048074010301e-07
 81 -2.49252148336259113e-05
 82 -4.89796906878489246e-06
 83 -1.23732148231848841e-06
 84 -9.44345205565251662e-06
 85  2.62089766157620817e-04
 86  2.09816094811784141e-04
 87  4.39174548517515595e-05
 88 -5.44149023854394274e-05
 89 -4.99128168886615009e-06