[Molden Format]
[Atoms] (AU)
C    1    6         2.688203947216       0.126267316038      -0.211284584910
H    2    1         4.728095907479       0.359456870713      -0.218011119477
C    3    6         1.369782617967       0.204435981782      -2.374855666231
H    4    1         2.318345438850       0.530982748944      -4.165937681460
C    5    6        -1.369782617967      -0.204435981782      -2.374855666231
H    6    1        -2.318345438850      -0.530982748944      -4.165937681460
C    7    6        -2.688203947216      -0.126267316038      -0.211284584910
H    8    1        -4.728095907290      -0.359456870902      -0.218011119477
C    9    6        -1.377448045575       0.458746757807       2.255586404767
H   10    1        -1.428727068278       2.518961490447       2.552818698465
H   11    1        -2.401900037590      -0.368832778254       3.849461186775
C   12    6         1.377448045575      -0.458746757807       2.255586404767
H   13    1         1.428727068278      -2.518961490069       2.552818698465
H   14    1         2.401900037401       0.368832778065       3.849461186397
[GTO]
  1 0
 s    6  1.00
     4563.2400000000         0.0019666500
      682.0240000000         0.0152306000
      154.9730000000         0.0761269000
       44.4553000000         0.2608010000
       13.0290000000         0.6164620000
        1.8277300000         0.2210060000
 s    3  1.00
       20.9642000000         0.1146600000
        4.8033100000         0.9199990000
        1.4593300000        -0.0030306800
 p    3  1.00
       20.9642000000         0.0402487000
        4.8033100000         0.2375940000
        1.4593300000         0.8158540000
 s    1  1.00
        0.4834560000         1.0000000000
 p    1  1.00
        0.4834560000         1.0000000000
 s    1  1.00
        0.1455850000         1.0000000000
 p    1  1.00
        0.1455850000         1.0000000000
 d    1  1.00
        0.6260000000         1.0000000000
 s    1  1.00
        0.0438000000         1.0000000000
 p    1  1.00
        0.0438000000         1.0000000000

  2 0
 s    3  1.00
       33.8650000000         0.0254938000
        5.0947900000         0.1903730000
        1.1587900000         0.8521610000
 s    1  1.00
        0.3258400000         1.0000000000
 s    1  1.00
        0.1027410000         1.0000000000

  3 0
 s    6  1.00
     4563.2400000000         0.0019666500
      682.0240000000         0.0152306000
      154.9730000000         0.0761269000
       44.4553000000         0.2608010000
       13.0290000000         0.6164620000
        1.8277300000         0.2210060000
 s    3  1.00
       20.9642000000         0.1146600000
        4.8033100000         0.9199990000
        1.4593300000        -0.0030306800
 p    3  1.00
       20.9642000000         0.0402487000
        4.8033100000         0.2375940000
        1.4593300000         0.8158540000
 s    1  1.00
        0.4834560000         1.0000000000
 p    1  1.00
        0.4834560000         1.0000000000
 s    1  1.00
        0.1455850000         1.0000000000
 p    1  1.00
        0.1455850000         1.0000000000
 d    1  1.00
        0.6260000000         1.0000000000
 s    1  1.00
        0.0438000000         1.0000000000
 p    1  1.00
        0.0438000000         1.0000000000

  4 0
 s    3  1.00
       33.8650000000         0.0254938000
        5.0947900000         0.1903730000
        1.1587900000         0.8521610000
 s    1  1.00
        0.3258400000         1.0000000000
 s    1  1.00
        0.1027410000         1.0000000000

  5 0
 s    6  1.00
     4563.2400000000         0.0019666500
      682.0240000000         0.0152306000
      154.9730000000         0.0761269000
       44.4553000000         0.2608010000
       13.0290000000         0.6164620000
        1.8277300000         0.2210060000
 s    3  1.00
       20.9642000000         0.1146600000
        4.8033100000         0.9199990000
        1.4593300000        -0.0030306800
 p    3  1.00
       20.9642000000         0.0402487000
        4.8033100000         0.2375940000
        1.4593300000         0.8158540000
 s    1  1.00
        0.4834560000         1.0000000000
 p    1  1.00
        0.4834560000         1.0000000000
 s    1  1.00
        0.1455850000         1.0000000000
 p    1  1.00
        0.1455850000         1.0000000000
 d    1  1.00
        0.6260000000         1.0000000000
 s    1  1.00
        0.0438000000         1.0000000000
 p    1  1.00
        0.0438000000         1.0000000000

  6 0
 s    3  1.00
       33.8650000000         0.0254938000
        5.0947900000         0.1903730000
        1.1587900000         0.8521610000
 s    1  1.00
        0.3258400000         1.0000000000
 s    1  1.00
        0.1027410000         1.0000000000

  7 0
 s    6  1.00
     4563.2400000000         0.0019666500
      682.0240000000         0.0152306000
      154.9730000000         0.0761269000
       44.4553000000         0.2608010000
       13.0290000000         0.6164620000
        1.8277300000         0.2210060000
 s    3  1.00
       20.9642000000         0.1146600000
        4.8033100000         0.9199990000
        1.4593300000        -0.0030306800
 p    3  1.00
       20.9642000000         0.0402487000
        4.8033100000         0.2375940000
        1.4593300000         0.8158540000
 s    1  1.00
        0.4834560000         1.0000000000
 p    1  1.00
        0.4834560000         1.0000000000
 s    1  1.00
        0.1455850000         1.0000000000
 p    1  1.00
        0.1455850000         1.0000000000
 d    1  1.00
        0.6260000000         1.0000000000
 s    1  1.00
        0.0438000000         1.0000000000
 p    1  1.00
        0.0438000000         1.0000000000

  8 0
 s    3  1.00
       33.8650000000         0.0254938000
        5.0947900000         0.1903730000
        1.1587900000         0.8521610000
 s    1  1.00
        0.3258400000         1.0000000000
 s    1  1.00
        0.1027410000         1.0000000000

  9 0
 s    6  1.00
     4563.2400000000         0.0019666500
      682.0240000000         0.0152306000
      154.9730000000         0.0761269000
       44.4553000000         0.2608010000
       13.0290000000         0.6164620000
        1.8277300000         0.2210060000
 s    3  1.00
       20.9642000000         0.1146600000
        4.8033100000         0.9199990000
        1.4593300000        -0.0030306800
 p    3  1.00
       20.9642000000         0.0402487000
        4.8033100000         0.2375940000
        1.4593300000         0.8158540000
 s    1  1.00
        0.4834560000         1.0000000000
 p    1  1.00
        0.4834560000         1.0000000000
 s    1  1.00
        0.1455850000         1.0000000000
 p    1  1.00
        0.1455850000         1.0000000000
 d    1  1.00
        0.6260000000         1.0000000000
 s    1  1.00
        0.0438000000         1.0000000000
 p    1  1.00
        0.0438000000         1.0000000000

  10 0
 s    3  1.00
       33.8650000000         0.0254938000
        5.0947900000         0.1903730000
        1.1587900000         0.8521610000
 s    1  1.00
        0.3258400000         1.0000000000
 s    1  1.00
        0.1027410000         1.0000000000

  11 0
 s    3  1.00
       33.8650000000         0.0254938000
        5.0947900000         0.1903730000
        1.1587900000         0.8521610000
 s    1  1.00
        0.3258400000         1.0000000000
 s    1  1.00
        0.1027410000         1.0000000000

  12 0
 s    6  1.00
     4563.2400000000         0.0019666500
      682.0240000000         0.0152306000
      154.9730000000         0.0761269000
       44.4553000000         0.2608010000
       13.0290000000         0.6164620000
        1.8277300000         0.2210060000
 s    3  1.00
       20.9642000000         0.1146600000
        4.8033100000         0.9199990000
        1.4593300000        -0.0030306800
 p    3  1.00
       20.9642000000         0.0402487000
        4.8033100000         0.2375940000
        1.4593300000         0.8158540000
 s    1  1.00
        0.4834560000         1.0000000000
 p    1  1.00
        0.4834560000         1.0000000000
 s    1  1.00
        0.1455850000         1.0000000000
 p    1  1.00
        0.1455850000         1.0000000000
 d    1  1.00
        0.6260000000         1.0000000000
 s    1  1.00
        0.0438000000         1.0000000000
 p    1  1.00
        0.0438000000         1.0000000000

  13 0
 s    3  1.00
       33.8650000000         0.0254938000
        5.0947900000         0.1903730000
        1.1587900000         0.8521610000
 s    1  1.00
        0.3258400000         1.0000000000
 s    1  1.00
        0.1027410000         1.0000000000

  14 0
 s    3  1.00
       33.8650000000         0.0254938000
        5.0947900000         0.1903730000
        1.1587900000         0.8521610000
 s    1  1.00
        0.3258400000         1.0000000000
 s    1  1.00
        0.1027410000         1.0000000000

[5D]
[9G]

[MO]
 Sym= A
 Ene= -1.12312566180168023e+01
 Spin= Alpha
 Occup=  1.00000000000000000e+00
  1  3.80279564959563776e-01
  2  3.14922582891344394e-01
  3  6.90405740446056087e-05
  4 -2.03754378537121884e-06
  5  2.01629180915299740e-04
  6  2.97236066483660662e-03
  7 -2.06881499035586170e-04
  8  3.86306810403490521e-06
  9 -3.92903516342956566e-04
 10 -5.11266174221967277e-04
 11  2.25997044308637866e-04
 12  7.08979234708725480e-05
 13  1.55128997165116222e-04
 14  1.79511419237412482e-04
 15  2.06221534225814820e-04
 16 -3.27624258287338423e-05
 17  1.97833285412492781e-04
 18  1.99595124308126227e-05
 19  8.51123066523443075e-04
 20 -3.37162284103949142e-04
 21 -5.76287390128229059e-05
 22 -1.21565938561101188e-03
 23  2.81378399034926563e-04
 24 -1.16387065562674398e-04
 25  1.54352904984201824e-04
 26  9.15534988586924336e-02
 27  7.57805917492104242e-02
 28  2.54335382431181480e-05
 29 -7.80389822189325654e-06
 30  1.04020377547622787e-04
 31  8.99566381498801164e-04
 32 -3.03793318302809467e-05
 33 -2.52256318939538098e-06
 34  5.99438903727951969e-06
 35 -1.07150530249186887e-04
 36  1.24257526471140585e-05
 37 -4.70163614797466399e-05
 38  1.20126634936109869e-04
 39 -1.39248731857843473e-06
 40  1.27754905648383195e-05
 41  1.48542396084873579e-06
 42 -1.59578990623132450e-05
 43 -1.21311548746924143e-05
 44 -2.26355382455780676e-03
 45 -5.29432063300032786e-04
 46  5.98419778627625975e-05
 47 -2.61746075949088961e-04
 48  6.63834191598806374e-05
 49 -9.15877691089460039e-06
 50  1.73308160954677403e-04
 51  9.15534706439459223e-02
 52  7.57805683896141391e-02
 53 -2.54335131295234691e-05
 54  7.80389713626255791e-06
 55  1.04020332028264363e-04
 56  8.99566126954203416e-04
 57  3.03793554669335930e-05
 58  2.52256805230890692e-06
 59  5.99440217316203898e-06
 60 -1.07150367212751732e-04
 61 -1.24257745735578361e-05
 62  4.70163561391522995e-05
 63  1.20126680779970504e-04
 64 -1.39248882233368727e-06
 65 -1.27754736931040632e-05
 66 -1.48542070161894161e-06
 67 -1.59578817703722539e-05
 68 -1.21311498435662367e-05
 69 -2.26355509639920545e-03
 70  5.29432418697644409e-04
 71 -5.98419369204641297e-05
 72 -2.61746626056809460e-04
 73  6.63833974236131477e-05
 74 -9.15876698186467480e-06
 75  1.73308151801583458e-04
 76  3.80279424954181433e-01
 77  3.14922466947852142e-01
 78 -6.90405491857073843e-05
 79  2.03754309352179635e-06
 80  2.01629106223158758e-04
 81  2.97235959098574422e-03
 82  2.06881427502271118e-04
 83 -3.86306554949805006e-06
 84 -3.92903368374603826e-04
 85 -5.11266153573867077e-04
 86 -2.25997057519801772e-04
 87 -7.08979204762353899e-05
 88  1.55128996791182590e-04
 89  1.79511357019825280e-04
 90 -2.06221453108289011e-04
 91  3.27624135550350342e-05
 92  1.97833213807325727e-04
 93  1.99595029818781493e-05
 94  8.51124252317562004e-04
 95  3.37162336206756454e-04
 96  5.76286467950630425e-05
 97 -1.21565979353057698e-03
 98  2.81378297263915457e-04
 99 -1.16387030480509185e-04
100  1.54352822106390575e-04
101  7.51685705116149350e-02
102  6.21827714209458524e-02
103 -3.02793308242054961e-05
104 -2.50890673458957565e-05
105 -8.32918963292991662e-05
106  8.53559083897503790e-04
107 -6.49283684610293732e-05
108 -7.01686544735334697e-05
109 -2.11682187110755015e-04
110 -1.67098070994760680e-04
111  9.90524863582735871e-05
112  1.81090149874706737e-04
113  8.47146903953137356e-06
114  4.83046264350146776e-05
115  6.33634043148020528e-05
116  3.23251176228214285e-05
117 -8.28075921551246801e-06
118  4.29011024130179615e-06
119  1.59656628295634651e-03
120 -5.26676221191615598e-04
121 -4.91233648517638453e-04
122 -2.58962225448269379e-04
123  4.75670327276357807e-05
124 -5.20065790019714255e-05
125 -5.30062567473340801e-05
126  4.68947501494214910e-05
127  1.01837925534162122e-04
128 -1.40322601417073494e-04
129  7.51685897703458228e-02
130  6.21827873521919455e-02
131  3.02793433483194475e-05
132  2.50890775431575774e-05
133 -8.32919277319879109e-05
134  8.53559324245386770e-04
135  6.49284414639239555e-05
136  7.01686558505236122e-05
137 -2.11682263527026166e-04
138 -1.67098284934319999e-04
139 -9.90524431987948293e-05
140 -1.81090161285067322e-04
141  8.47150454436473713e-06
142  4.83046606730497057e-05
143 -6.33634345719042964e-05
144 -3.23251258082957131e-05
145 -8.28077731464215776e-06
146  4.29012811356941412e-06
147  1.59656693023047967e-03
148  5.26675927345225995e-04
149  4.91233734874685292e-04
150 -2.58962203736697548e-04
151  4.75670370241738748e-05
152 -5.20065428607291574e-05
153 -5.30062776148460221e-05
154  4.68947606490245837e-05
155  1.01837948626445592e-04
156 -1.40322640361116227e-04
 Sym= A
 Ene= -1.12312256281546148e+01
 Spin= Alpha
 Occup=  1.00000000000000000e+00
  1  3.86397998828273692e-01
  2  3.19996330636534154e-01
  3  6.82779856873335365e-05
  4 -2.29322912153021085e-06
  5  2.07598153848403201e-04
  6  2.97361041413462439e-03
  7 -1.99774903271286573e-04
  8  6.73383262910205678e-06
  9 -4.04921749513773238e-04
 10 -1.04121631795223046e-04
 11 -4.19076300364855991e-05
 12  7.94859149261988207e-06
 13  1.68155586733199412e-05
 14  1.71714353114017901e-04
 15  2.22680905951387262e-04
 16 -3.34284108786126944e-05
 17  1.96552324076588628e-04
 18  2.57999218940326583e-05
 19 -8.18892530574721845e-04
 20 -1.05593440278161548e-04
 21 -2.03688580746779841e-04
 22  6.24273306681896300e-04
 23  2.79098697731342351e-04
 24 -8.23854902786752341e-05
 25  2.00894974794035359e-04
 26  7.69249231549367501e-02
 27  6.36873665258757410e-02
 28  7.01869527674531577e-05
 29 -3.04580701826859072e-06
 30  1.26063529989058163e-04
 31  6.99125527469888282e-04
 32  6.14755916857717927e-05
 33  1.30776087636286370e-05
 34 -3.65308458521707127e-05
 35 -4.73562806095077695e-04
 36 -7.26255587970626144e-07
 37 -7.86575623007201048e-06
 38 -1.14973907838387078e-04
 39  4.33133082991852111e-06
 40  4.64298704000671512e-05
 41  8.83825946956193434e-06
 42 -4.91865729092732918e-05
 43 -1.43387838272180709e-05
 44  2.39097632461811749e-03
 45  2.44029377906093074e-04
 46  4.30236081508227961e-05
 47  7.87161711859706145e-04
 48  5.99868075246995318e-05
 49 -3.18001854065951947e-05
 50  2.94956347322214114e-05
 51 -7.69249559158094731e-02
 52 -6.36873936426493314e-02
 53  7.01869616473140207e-05
 54 -3.04580984020540743e-06
 55 -1.26063567317556040e-04
 56 -6.99125848631718702e-04
 57  6.14755833474507380e-05
 58  1.30776078321511653e-05
 59  3.65308418219496706e-05
 60  4.73562825690849857e-04
 61 -7.26247862834604018e-07
 62 -7.86577250129904522e-06
 63  1.14973861400180540e-04
 64 -4.33133096129517098e-06
 65  4.64298756667932595e-05
 66  8.83825992772483717e-06
 67  4.91865781349636218e-05
 68  1.43387881744198314e-05
 69 -2.39097502155544237e-03
 70  2.44029149319263623e-04
 71  4.30236391880145744e-05
 72 -7.87161507665735602e-04
 73 -5.99868318720559720e-05
 74  3.18001930867878785e-05
 75 -2.94957077980668216e-05
 76 -3.86398136042287565e-01
 77 -3.19996444270354896e-01
 78  6.82780098838001441e-05
 79 -2.29322995195281956e-06
 80 -2.07598227087144120e-04
 81 -2.97361149249379631e-03
 82 -1.99774976494341145e-04
 83  6.73383358962430859e-06
 84  4.04921888673505262e-04
 85  1.04121842949246281e-04
 86 -4.19075536450735364e-05
 87  7.94861441552717118e-06
 88 -1.68156220598311774e-05
 89 -1.71714417269617218e-04
 90  2.22680979012844618e-04
 91 -3.34284228533472663e-05
 92 -1.96552394108463947e-04
 93 -2.57999290105057965e-05
 94  8.18891190168840612e-04
 95 -1.05593732015459956e-04
 96 -2.03688622128104775e-04
 97 -6.24272892492537925e-04
 98 -2.79098797492758873e-04
 99  8.23855206029026568e-05
100 -2.00895006801788116e-04
101 -5.85774954686829469e-02
102 -4.84611398552770647e-02
103  3.55433580962310618e-05
104  2.79332874732506197e-05
105  8.89368641911743811e-05
106 -7.09679014385468571e-04
107  2.06546230421163917e-04
108  2.80256502586229917e-06
109  2.05564578449095927e-04
110  6.63831734176095062e-04
111  1.40146293149020801e-04
112 -4.20901755249037261e-05
113 -7.31558137541719162e-05
114 -9.67985382262066357e-05
115 -8.33598489882176312e-05
116 -2.30831784241064178e-05
117  5.29658372365076398e-05
118 -5.15940153424010025e-05
119 -9.94279499433962325e-04
120 -6.60230384831021907e-04
121  1.68602731276664206e-04
122 -1.91918830275759320e-04
123 -1.55718465695800697e-05
124 -9.91409457983758726e-05
125  2.40879175442530311e-05
126 -3.27062185822231307e-05
127 -6.47364211120534972e-05
128  5.37954746204892751e-05
129  5.85774660235525366e-02
130  4.84611154954278991e-02
131  3.55433480648823649e-05
132  2.79332775555300443e-05
133 -8.89368335777428594e-05
134  7.09678687065447549e-04
135  2.06546205595957547e-04
136  2.80254207163258506e-06
137 -2.05564502808494126e-04
138 -6.63831665105722702e-04
139  1.40146333606834143e-04
140 -4.20901243148636859e-05
141  7.31558122057307585e-05
142  9.67985208684603191e-05
143 -8.33598264860925357e-05
144 -2.30831670282281582e-05
145 -5.29658347036080499e-05
146  5.15940140208287428e-05
147  9.94279502797285617e-04
148 -6.60230540275038289e-04
149  1.68602590686751474e-04
150  1.91918781825044308e-04
151  1.55718272920344523e-05
152  9.91409669547212115e-05
153 -2.40879461427289168e-05
154  3.27061992108956042e-05
155  6.47363908476674749e-05
156 -5.37954607910698132e-05
 Sym= A
 Ene= -1.12295697640623651e+01
 Spin= Alpha
 Occup=  1.00000000000000000e+00
  1  6.86557365088500821e-02
  2  5.69022946401903235e-02
  3  4.63863248807606666e-05
  4  1.55654632788724629e-05
  5 -4.71510908243058294e-05
  6  3.84433489191353818e-04
  7  6.51425421539976609e-05
  8  5.60962699728116161e-05
  9 -3.10101639079561533e-04
 10 -7.41359194014082823e-04
 11  3.86444001147865008e-04
 12  8.51820276370763554e-05
 13 -2.68984375742613833e-04
 14 -4.18576270663139022e-05
 15  1.41510867260773225e-04
 16  3.02781051452079840e-05
 17  9.87057161337935158e-06
 18 -1.05963803187725329e-05
 19  3.46086169836418278e-05
 20 -3.44425998368886013e-06
 21  5.89711763776006503e-05
 22  3.88787566178291075e-04
 23  5.31604763854564929e-05
 24 -4.20894367620573372e-05
 25 -8.24640781940692906e-05
 26  3.58238719610132067e-02
 27  2.96571617605263169e-02
 28 -1.17926559224119017e-05
 29 -1.11325108419228136e-06
 30  1.09054694840080763e-05
 31  3.38430040487591060e-04
 32 -5.64553996645335143e-06
 33 -1.13446096139828575e-06
 34  3.01398002493651570e-05
 35 -1.15869555951926366e-05
 36 -7.16266976842089303e-05
 37 -1.40935953275926754e-05
 38  6.20317320890139795e-05
 39 -6.41389095547194561e-06
 40  2.67906706027657812e-06
 41  1.79073591212454381e-06
 42  2.82251591202706714e-06
 43 -2.88534126410646432e-07
 44  7.25931434453955422e-04
 45  1.15197596231597624e-04
 46 -1.03054806745131032e-04
 47  1.42852295421286237e-04
 48  2.57628945362335913e-05
 49  9.46460636309806300e-06
 50  9.72321394104273789e-06
 51  3.58238738996457876e-02
 52  2.96571633660950018e-02
 53  1.17926545222570565e-05
 54  1.11325077336654889e-06
 55  1.09054716800866360e-05
 56  3.38430052816717820e-04
 57  5.64553888890144976e-06
 58  1.13446247612406591e-06
 59  3.01397996468914145e-05
 60 -1.15869046173191045e-05
 61  7.16267127427926099e-05
 62  1.40935975553943114e-05
 63  6.20317584102523541e-05
 64 -6.41389102517361175e-06
 65 -2.67906869499739320e-06
 66 -1.79073641422976681e-06
 67  2.82251678715478859e-06
 68 -2.88534345733288376e-07
 69  7.25930618542410607e-04
 70 -1.15197669289525780e-04
 71  1.03054796782694138e-04
 72  1.42852159916060490e-04
 73  2.57628960481105288e-05
 74  9.46460613307470925e-06
 75  9.72323244184774845e-06
 76  6.86557432877202140e-02
 77  5.69023002586444074e-02
 78 -4.63863291961279169e-05
 79 -1.55654647843792891e-05
 80 -4.71510943176502980e-05
 81  3.84433525434681493e-04
 82 -6.51425496604379138e-05
 83 -5.60962734726750401e-05
 84 -3.10101663182136395e-04
 85 -7.41359284653392140e-04
 86 -3.86444033865295119e-04
 87 -8.51820324108323580e-05
 88 -2.68984390049996152e-04
 89 -4.18576294546335603e-05
 90 -1.41510876963240109e-04
 91 -3.02781063525012080e-05
 92  9.87057426892337966e-06
 93 -1.05963820496115428e-05
 94  3.46094801497200800e-05
 95  3.44443088392352628e-06
 96 -5.89711634444168228e-05
 97  3.88787578950928840e-04
 98  5.31604810539578843e-05
 99 -4.20894358764822089e-05
100 -8.24640821216977903e-05
101 -3.90756094680022981e-01
102 -3.23534603780974150e-01
103 -6.59819078597269744e-05
104  5.49295408388014803e-05
105  8.85643136714871009e-05
106 -3.25850412825920161e-03
107 -2.41977703140100009e-04
108 -8.10592801801957362e-06
109 -1.52978834326622667e-04
110  1.42752473954474240e-03
111 -7.57763379302785959e-05
112  8.56050049967930636e-05
113 -2.82284127515962683e-04
114  7.85179159517178002e-05
115  8.27137996936845691e-05
116  4.43733570153611662e-05
117 -1.50767750644895050e-05
118  1.98929032914919982e-05
119 -5.81915839350582108e-04
120  1.16612204179940439e-04
121  2.17404298425618616e-04
122  2.14509669270087039e-04
123 -2.26022905268057685e-04
124 -1.59371953221948073e-04
125 -3.35001543463166694e-04
126 -2.41613221743892893e-04
127 -4.75385195172286118e-05
128 -2.32344905147593918e-04
129 -3.90756063092475681e-01
130 -3.23534577620095354e-01
131  6.59819150421973183e-05
132 -5.49295415806537793e-05
133  8.85643077073945592e-05
134 -3.25850389427729094e-03
135  2.41977719604564621e-04
136  8.10591910338443874e-06
137 -1.52978824731849069e-04
138  1.42752452703667721e-03
139  7.57763844759831696e-05
140 -8.56050277493085522e-05
141 -2.82284092155981410e-04
142  7.85179188915907411e-05
143 -8.27137951617044041e-05
144 -4.43733530959935891e-05
145 -1.50767847525472984e-05
146  1.98929099115981846e-05
147 -5.81914606185354190e-04
148 -1.16612393376215351e-04
149 -2.17404197252918081e-04
150  2.14509531519852426e-04
151 -2.26022888086183435e-04
152 -1.59371929393499039e-04
153 -3.35001571629522715e-04
154 -2.41613204432492018e-04
155 -4.75385000312031545e-05
156 -2.32344930826616303e-04
 Sym= A
 Ene= -1.12289894888902246e+01
 Spin= Alpha
 Occup=  1.00000000000000000e+00
  1  5.48570791190938073e-02
  2  4.54796729640244701e-02
  3  4.77612918729481659e-05
  4  2.08215064359347392e-05
  5 -5.98356075395774763e-05
  6  2.14988531713515037e-04
  7  9.97898712409311277e-05
  8  3.54309927926220155e-05
  9 -2.73831326198426656e-04
 10 -7.78803307449597035e-04
 11  2.59983852648590873e-04
 12  7.37826278767074196e-05
 13 -2.41279486662586889e-04
 14 -3.90307590160017130e-05
 15  1.07713826678247575e-04
 16  1.85375125171299005e-05
 17  2.12264201243976391e-05
 18 -1.94290615967292328e-05
 19 -3.00848316004470378e-03
 20  4.88730744939567868e-04
 21  4.70240553361838391e-05
 22 -9.41428930876479780e-05
 23  3.96206798259555836e-05
 24 -1.47585693681777705e-06
 25  4.25446098673843068e-05
 26  2.45543387388908498e-02
 27  2.03366333317795515e-02
 28  8.03823899537705044e-06
 29  3.79153661441103595e-06
 30  1.54420482098376169e-05
 31  1.69347871250970244e-04
 32  2.45489617879561989e-05
 33 -1.54174546639328473e-05
 34 -4.52577940890729827e-06
 35  3.07496931397534116e-04
 36 -2.27516403455486232e-04
 37 -1.97056499602506106e-05
 38  1.87955686009976268e-04
 39 -5.99930834424612541e-07
 40  1.51111615898994522e-05
 41  7.81977560777280343e-06
 42  1.00829734151448414e-05
 43 -2.64485678034206896e-06
 44  3.75998793620411966e-03
 45 -4.66592104013330170e-04
 46 -9.59613633662210081e-05
 47  5.90816096885861831e-04
 48  1.19708583089264169e-05
 49  4.09551986748414677e-05
 50  1.52270449178852734e-05
 51 -2.45543353119806913e-02
 52 -2.03366304945782721e-02
 53  8.03824039860553430e-06
 54  3.79153665792149172e-06
 55 -1.54420480458759314e-05
 56 -1.69347838375277191e-04
 57  2.45489646634826726e-05
 58 -1.54174544580384637e-05
 59  4.52578050378413148e-06
 60 -3.07496953730486389e-04
 61 -2.27516396966351780e-04
 62 -1.97056491829032164e-05
 63 -1.87955686966790811e-04
 64  5.99930025576238139e-07
 65  1.51111617896838398e-05
 66  7.81977553978999329e-06
 67 -1.00829731103238554e-05
 68  2.64485687708164215e-06
 69 -3.75998753973181372e-03
 70 -4.66592110261162120e-04
 71 -9.59613457373272748e-05
 72 -5.90815997410883771e-04
 73 -1.19708563034776889e-05
 74 -4.09551949224380233e-05
 75 -1.52270523131851525e-05
 76 -5.48570756761000353e-02
 77 -4.54796701092931299e-02
 78  4.77612883434077906e-05
 79  2.08215052620002510e-05
 80  5.98356022552327846e-05
 81 -2.14988520551250619e-04
 82  9.97898662093748201e-05
 83  3.54309877965606370e-05
 84  2.73831302359159724e-04
 85  7.78803276625138598e-04
 86  2.59983825696741484e-04
 87  7.37826210097645058e-05
 88  2.41279458124614259e-04
 89  3.90307554084743096e-05
 90  1.07713815624046224e-04
 91  1.85375099187608776e-05
 92 -2.12264191620815223e-05
 93  1.94290608021806661e-05
 94  3.00848208038063079e-03
 95  4.88730565275236170e-04
 96  4.70240185783229577e-05
 97  9.41427996457431024e-05
 98 -3.96206757030638379e-05
 99  1.47584510076142569e-06
100 -4.25445885948998209e-05
101  3.93859042506878643e-01
102  3.26188561265320476e-01
103 -8.27761291683084226e-05
104  2.94096198036435803e-06
105 -9.19501007995936193e-05
106  2.95065852065081119e-03
107 -2.53994982335075271e-04
108  1.29377268294629018e-04
109  1.52013498178645630e-04
110 -2.56218767231171374e-03
111 -3.51524609148415768e-04
112  1.85024050731994800e-04
113  1.64148013296221926e-04
114  4.35956475635768088e-05
115 -5.45932987571444954e-05
116 -3.74161276484994998e-05
117 -1.28283146455897057e-04
118  8.15281129119531665e-05
119 -2.99864390921485450e-03
120 -1.49522719489578182e-04
121  1.84213115883749285e-04
122  3.13535850408604199e-04
123  2.35708344052997355e-04
124  1.67865307795031819e-04
125  3.87027057971841865e-04
126  2.33418550815085024e-04
127  1.54845684470440991e-04
128  4.62321952485729307e-04
129 -3.93859074488591421e-01
130 -3.26188587744863645e-01
131 -8.27761232104907280e-05
132  2.94095659096503963e-06
133  9.19501086566798032e-05
134 -2.95065878847139114e-03
135 -2.53994966762900699e-04
136  1.29377272129457198e-04
137 -1.52013510200632335e-04
138  2.56218778827874138e-03
139 -3.51524594418478338e-04
140  1.85024030092843767e-04
141 -1.64148029039746764e-04
142 -4.35956416702432513e-05
143 -5.45933051345948549e-05
144 -3.74161310603162545e-05
145  1.28283145140550516e-04
146 -8.15281111496651785e-05
147  2.99864465099812126e-03
148 -1.49522659463176987e-04
149  1.84213153087614735e-04
150 -3.13536018475155760e-04
151 -2.35708364238319194e-04
152 -1.67865312836881108e-04
153 -3.87027149662186581e-04
154 -2.33418571610599911e-04
155 -1.54845682601435498e-04
156 -4.62322017384153940e-04
 Sym= A
 Ene= -1.12276821362129073e+01
 Spin= Alpha
 Occup=  1.00000000000000000e+00
  1  9.67451664207578527e-02
  2  8.01608906788317394e-02
  3  1.18677881829711929e-04
  4 -1.89516485882886121e-06
  5  2.06150314236869893e-04
  6  5.51381869162232839e-04
  7 -8.05508750079671172e-05
  8 -3.92304511972475977e-06
  9 -1.84523432294931672e-04
 10  1.15983287770053681e-04
 11  1.04246592504892742e-04
 12  1.88648024157674993e-05
 13 -3.56309221120095277e-05
 14  9.81167806610716011e-05
 15  5.40188450462337840e-05
 16 -2.79182921056227535e-05
 17  1.20513543908675968e-04
 18  3.08706877698361739e-05
 19  4.38057892733661623e-04
 20 -2.75665317512220377e-05
 21 -2.85681495372648254e-05
 22  4.51217809633445207e-04
 23  7.03143956135299773e-05
 24 -4.20931436097492603e-05
 25 -4.24371943265407060e-05
 26 -3.85968695111400861e-01
 27 -3.19611176425647348e-01
 28  3.33410937078828617e-04
 29 -1.21120656319400244e-06
 30  2.25371964320372097e-04
 31 -3.20621133295998168e-03
 32 -8.49472820244331293e-05
 33  5.18016611466687378e-05
 34 -3.74193671437781337e-04
 35  3.27460045481365051e-04
 36 -5.50758750225731949e-05
 37 -3.16200428138860276e-05
 38  8.50695490022924201e-05
 39 -1.70332116423844532e-04
 40 -1.72450159510721462e-04
 41  5.91529815050066630e-05
 42 -2.50752303736774854e-04
 43 -4.42974812198967212e-05
 44  2.20455176893433104e-04
 45  2.54812913462300035e-04
 46  6.53860036233955700e-05
 47 -1.44313811322225411e-04
 48 -2.93277598955324077e-04
 49  9.77428313011041938e-05
 50 -1.81343542731067758e-04
 51 -3.85968682929202778e-01
 52 -3.19611166334614005e-01
 53 -3.33410932493215370e-04
 54  1.21120550256557194e-06
 55  2.25371956532219623e-04
 56 -3.20621125330811498e-03
 57  8.49472601488789725e-05
 58 -5.18016618702322538e-05
 59 -3.74193655227374894e-04
 60  3.27460085733165479e-04
 61  5.50759163200739601e-05
 62  3.16200485442877900e-05
 63  8.50695428972378885e-05
 64 -1.70332103755167308e-04
 65  1.72450153032530106e-04
 66 -5.91529794669648899e-05
 67 -2.50752298018734447e-04
 68 -4.42974805088297330e-05
 69  2.20454393787000811e-04
 70 -2.54813579987734056e-04
 71 -6.53860935236900948e-05
 72 -1.44313550368168979e-04
 73 -2.93277589345858510e-04
 74  9.77428222534583690e-05
 75 -1.81343510779122572e-04
 76  9.67451636165743561e-02
 77  8.01608883562003466e-02
 78 -1.18677877331864102e-04
 79  1.89516464112965579e-06
 80  2.06150307123682358e-04
 81  5.51381853236470286e-04
 82  8.05508687734480719e-05
 83  3.92304590195252066e-06
 84 -1.84523420025377104e-04
 85  1.15983277147410250e-04
 86 -1.04246596193089192e-04
 87 -1.88648057272980060e-05
 88 -3.56309384597608189e-05
 89  9.81167774275863307e-05