[Molden Format]
[Atoms] (AU)
C    1    6         2.688203947216       0.126267316038      -0.211284584910
H    2    1         4.728095907479       0.359456870713      -0.218011119477
C    3    6         1.369782617967       0.204435981782      -2.374855666231
H    4    1         2.318345438850       0.530982748944      -4.165937681460
C    5    6        -1.369782617967      -0.204435981782      -2.374855666231
H    6    1        -2.318345438850      -0.530982748944      -4.165937681460
C    7    6        -2.688203947216      -0.126267316038      -0.211284584910
H    8    1        -4.728095907290      -0.359456870902      -0.218011119477
C    9    6        -1.377448045575       0.458746757807       2.255586404767
H   10    1        -1.428727068278       2.518961490447       2.552818698465
H   11    1        -2.401900037590      -0.368832778254       3.849461186775
C   12    6         1.377448045575      -0.458746757807       2.255586404767
H   13    1         1.428727068278      -2.518961490069       2.552818698465
H   14    1         2.401900037401       0.368832778065       3.849461186397
[GTO]
  1 0
 s    6  1.00
     4563.2400000000         0.0019666500
      682.0240000000         0.0152306000
      154.9730000000         0.0761269000
       44.4553000000         0.2608010000
       13.0290000000         0.6164620000
        1.8277300000         0.2210060000
 s    3  1.00
       20.9642000000         0.1146600000
        4.8033100000         0.9199990000
        1.4593300000        -0.0030306800
 p    3  1.00
       20.9642000000         0.0402487000
        4.8033100000         0.2375940000
        1.4593300000         0.8158540000
 s    1  1.00
        0.4834560000         1.0000000000
 p    1  1.00
        0.4834560000         1.0000000000
 s    1  1.00
        0.1455850000         1.0000000000
 p    1  1.00
        0.1455850000         1.0000000000
 d    1  1.00
        0.6260000000         1.0000000000
 s    1  1.00
        0.0438000000         1.0000000000
 p    1  1.00
        0.0438000000         1.0000000000

  2 0
 s    3  1.00
       33.8650000000         0.0254938000
        5.0947900000         0.1903730000
        1.1587900000         0.8521610000
 s    1  1.00
        0.3258400000         1.0000000000
 s    1  1.00
        0.1027410000         1.0000000000

  3 0
 s    6  1.00
     4563.2400000000         0.0019666500
      682.0240000000         0.0152306000
      154.9730000000         0.0761269000
       44.4553000000         0.2608010000
       13.0290000000         0.6164620000
        1.8277300000         0.2210060000
 s    3  1.00
       20.9642000000         0.1146600000
        4.8033100000         0.9199990000
        1.4593300000        -0.0030306800
 p    3  1.00
       20.9642000000         0.0402487000
        4.8033100000         0.2375940000
        1.4593300000         0.8158540000
 s    1  1.00
        0.4834560000         1.0000000000
 p    1  1.00
        0.4834560000         1.0000000000
 s    1  1.00
        0.1455850000         1.0000000000
 p    1  1.00
        0.1455850000         1.0000000000
 d    1  1.00
        0.6260000000         1.0000000000
 s    1  1.00
        0.0438000000         1.0000000000
 p    1  1.00
        0.0438000000         1.0000000000

  4 0
 s    3  1.00
       33.8650000000         0.0254938000
        5.0947900000         0.1903730000
        1.1587900000         0.8521610000
 s    1  1.00
        0.3258400000         1.0000000000
 s    1  1.00
        0.1027410000         1.0000000000

  5 0
 s    6  1.00
     4563.2400000000         0.0019666500
      682.0240000000         0.0152306000
      154.9730000000         0.0761269000
       44.4553000000         0.2608010000
       13.0290000000         0.6164620000
        1.8277300000         0.2210060000
 s    3  1.00
       20.9642000000         0.1146600000
        4.8033100000         0.9199990000
        1.4593300000        -0.0030306800
 p    3  1.00
       20.9642000000         0.0402487000
        4.8033100000         0.2375940000
        1.4593300000         0.8158540000
 s    1  1.00
        0.4834560000         1.0000000000
 p    1  1.00
        0.4834560000         1.0000000000
 s    1  1.00
        0.1455850000         1.0000000000
 p    1  1.00
        0.1455850000         1.0000000000
 d    1  1.00
        0.6260000000         1.0000000000
 s    1  1.00
        0.0438000000         1.0000000000
 p    1  1.00
        0.0438000000         1.0000000000

  6 0
 s    3  1.00
       33.8650000000         0.0254938000
        5.0947900000         0.1903730000
        1.1587900000         0.8521610000
 s    1  1.00
        0.3258400000         1.0000000000
 s    1  1.00
        0.1027410000         1.0000000000

  7 0
 s    6  1.00
     4563.2400000000         0.0019666500
      682.0240000000         0.0152306000
      154.9730000000         0.0761269000
       44.4553000000         0.2608010000
       13.0290000000         0.6164620000
        1.8277300000         0.2210060000
 s    3  1.00
       20.9642000000         0.1146600000
        4.8033100000         0.9199990000
        1.4593300000        -0.0030306800
 p    3  1.00
       20.9642000000         0.0402487000
        4.8033100000         0.2375940000
        1.4593300000         0.8158540000
 s    1  1.00
        0.4834560000         1.0000000000
 p    1  1.00
        0.4834560000         1.0000000000
 s    1  1.00
        0.1455850000         1.0000000000
 p    1  1.00
        0.1455850000         1.0000000000
 d    1  1.00
        0.6260000000         1.0000000000
 s    1  1.00
        0.0438000000         1.0000000000
 p    1  1.00
        0.0438000000         1.0000000000

  8 0
 s    3  1.00
       33.8650000000         0.0254938000
        5.0947900000         0.1903730000
        1.1587900000         0.8521610000
 s    1  1.00
        0.3258400000         1.0000000000
 s    1  1.00
        0.1027410000         1.0000000000

  9 0
 s    6  1.00
     4563.2400000000         0.0019666500
      682.0240000000         0.0152306000
      154.9730000000         0.0761269000
       44.4553000000         0.2608010000
       13.0290000000         0.6164620000
        1.8277300000         0.2210060000
 s    3  1.00
       20.9642000000         0.1146600000
        4.8033100000         0.9199990000
        1.4593300000        -0.0030306800
 p    3  1.00
       20.9642000000         0.0402487000
        4.8033100000         0.2375940000
        1.4593300000         0.8158540000
 s    1  1.00
        0.4834560000         1.0000000000
 p    1  1.00
        0.4834560000         1.0000000000
 s    1  1.00
        0.1455850000         1.0000000000
 p    1  1.00
        0.1455850000         1.0000000000
 d    1  1.00
        0.6260000000         1.0000000000
 s    1  1.00
        0.0438000000         1.0000000000
 p    1  1.00
        0.0438000000         1.0000000000

  10 0
 s    3  1.00
       33.8650000000         0.0254938000
        5.0947900000         0.1903730000
        1.1587900000         0.8521610000
 s    1  1.00
        0.3258400000         1.0000000000
 s    1  1.00
        0.1027410000         1.0000000000

  11 0
 s    3  1.00
       33.8650000000         0.0254938000
        5.0947900000         0.1903730000
        1.1587900000         0.8521610000
 s    1  1.00
        0.3258400000         1.0000000000
 s    1  1.00
        0.1027410000         1.0000000000

  12 0
 s    6  1.00
     4563.2400000000         0.0019666500
      682.0240000000         0.0152306000
      154.9730000000         0.0761269000
       44.4553000000         0.2608010000
       13.0290000000         0.6164620000
        1.8277300000         0.2210060000
 s    3  1.00
       20.9642000000         0.1146600000
        4.8033100000         0.9199990000
        1.4593300000        -0.0030306800
 p    3  1.00
       20.9642000000         0.0402487000
        4.8033100000         0.2375940000
        1.4593300000         0.8158540000
 s    1  1.00
        0.4834560000         1.0000000000
 p    1  1.00
        0.4834560000         1.0000000000
 s    1  1.00
        0.1455850000         1.0000000000
 p    1  1.00
        0.1455850000         1.0000000000
 d    1  1.00
        0.6260000000         1.0000000000
 s    1  1.00
        0.0438000000         1.0000000000
 p    1  1.00
        0.0438000000         1.0000000000

  13 0
 s    3  1.00
       33.8650000000         0.0254938000
        5.0947900000         0.1903730000
        1.1587900000         0.8521610000
 s    1  1.00
        0.3258400000         1.0000000000
 s    1  1.00
        0.1027410000         1.0000000000

  14 0
 s    3  1.00
       33.8650000000         0.0254938000
        5.0947900000         0.1903730000
        1.1587900000         0.8521610000
 s    1  1.00
        0.3258400000         1.0000000000
 s    1  1.00
        0.1027410000         1.0000000000

[5D]
[9G]

[MO]
 Sym= A
 Ene= -1.37209957731909853e+01
 Spin= Alpha
 Occup=  1.00000000000000000e+00
  1  6.23892353548628043e-01
  2  4.20864333719886408e-01
  3 -1.96254894271387153e-03
  4 -1.20077318999526009e-04
  5 -1.57551416245827456e-03
  6 -5.70869734760491229e-02
  7  1.12659946538008413e-02
  8  4.03816813981745218e-04
  9  1.05768578956715632e-02
 10  4.78306170455303353e-02
 11 -1.17564248777915666e-02
 12 -2.20555474819221281e-03
 13 -1.17966910969434079e-03
 14 -6.00461528993616843e-03
 15 -4.85882599685106675e-03
 16  8.45617462164983589e-04
 17 -1.84797806682466181e-03
 18  3.38733501486287661e-05
 19 -5.98104892295750895e-02
 20  1.52998110501896042e-02
 21  5.05247058570760903e-03
 22  6.64131816454731697e-03
 23 -1.26663829398325061e-04
 24  2.37651706167519346e-03
 25 -4.57999002391663249e-03
 26  3.85533370658881433e-04
 27 -1.73905081017679220e-03
 28 -1.96382187970793598e-03
 29  2.88460145847674601e-05
 30 -2.35293372950183283e-03
 31  6.49103456167356499e-03
 32  1.23288206192797324e-02
 33 -2.78177418784911754e-04
 34  1.59309100572056495e-02
 35 -3.75619457887065326e-03
 36 -1.28683585315746011e-03
 37  1.53498373270651392e-03
 38 -1.03273948502983406e-02
 39  6.66824725999909385e-03
 40  8.11180279213674117e-03
 41 -3.25189215634396006e-04
 42  9.64360583173162365e-04
 43 -7.64951301465754854e-04
 44  3.14456684848188547e-02
 45  6.64200574373311359e-03
 46 -1.90548983146620362e-03
 47  2.12405994180489858e-03
 48  1.10127890988708258e-03
 49 -7.43997056660963287e-04
 50 -5.76155146748837371e-03
 51  5.09228874976677887e-05
 52 -3.02692772652502439e-04
 53 -7.99458917478102133e-04
 54 -1.08133811499611177e-04
 55  2.96699283262901836e-04
 56  1.38656990207284116e-03
 57  5.03402571958125322e-03
 58  6.03568012369786150e-04
 59 -1.42104941224794408e-03
 60 -8.24453650781166642e-04
 61 -2.05470844522145490e-03
 62 -7.42014657415858881e-04
 63  2.42267542764397910e-04
 64 -2.31527641036655563e-03
 65  6.87964193099168710e-04
 66  1.12142999062009917e-04
 67  1.27711781554835251e-03
 68  4.38173341217888614e-04
 69  5.57292208008531367e-02
 70 -8.52378173834063280e-03
 71  1.85381684832861189e-04
 72  1.14624057283554733e-02
 73  3.17464499265013495e-04
 74  3.24016840588123680e-04
 75 -2.77488116502662592e-03
 76  4.69539347465268409e-05
 77 -2.62077579000719756e-04
 78 -8.42337757577779259e-05
 79 -5.15998887608979103e-06
 80  1.37804595659770990e-04
 81  1.37117508104378136e-03
 82  1.32047796654483941e-03
 83 -1.35340958593815977e-05
 84 -1.58765890956337821e-03
 85  9.79273162892928218e-04
 86  1.43199872015261774e-03
 87  9.39985663965670374e-04
 88  1.83357692503663611e-04
 89  3.82651455428205584e-04
 90 -8.33860227482211848e-04
 91  1.92244499573687266e-04
 92 -7.48804795369068752e-05
 93 -2.64176858788548283e-05
 94 -2.20890420168260056e-02
 95 -3.65253706301888782e-03
 96  2.30248708738121617e-03
 97  2.10393809612846455e-02
 98  1.39056001117583272e-04
 99  5.60505708253863097e-04
100 -5.01372063715885144e-04
101  3.62500447866522313e-05
102 -2.33196750877920112e-04
103 -2.41317419592093879e-04
104 -8.99287085508973780e-06
105 -5.29559831249927008e-05
106  1.46206971992387104e-03
107  1.33827047254326073e-03
108 -1.36687356998878675e-04
109 -1.53675028536007523e-04
110 -2.10598576089853938e-03
111 -2.16609834693546471e-03
112 -3.06409943303276137e-03
113  1.46468621834942381e-03
114 -4.31679255557147464e-04
115  3.96522290920898384e-04
116  1.54552812383778731e-04
117  3.17928258775364834e-04
118 -2.47709979975974267e-04
119  4.06502348983731835e-03
120  1.59593310081935988e-02
121  1.74483527115518763e-03
122  5.97913751832347684e-03
123 -3.54698918370396086e-04
124  2.32620906456299133e-03
125  2.89457748714849034e-04
126  3.27246555634220821e-04
127 -6.78820930368949750e-04
128 -1.63190136148555834e-03
129  7.24984649256981832e-05
130 -4.29599013203088977e-04
131 -8.53163186949625583e-04
132 -3.26538082964467676e-04
133  1.39706518486577553e-03
134  4.98958916429211789e-04
135  2.62389600142570257e-03
136  9.23547884721898104e-04
137 -4.15765356624069309e-03
138 -7.66541651175661233e-03
139 -8.65080360493971322e-04
140  1.25970261143643677e-03
141  5.54979433673518253e-03
142  2.48829417223189828e-03
143 -2.64713371707579487e-03
144 -1.22701806760743101e-03
145  8.43703640839972568e-04
146  9.17180374206657168e-04
147 -1.09880664910012339e-02
148  6.82302676868031151e-03
149 -6.65450115420125610e-03
150 -6.89749357564430326e-03
151  6.32958687695322868e-04
152  1.23340744446725310e-03
153  2.86834888266849965e-04
154  5.86104025717868100e-04
155 -4.35557580994635259e-04
156  9.93046271985944000e-04
 Sym= A
 Ene= -1.15275143922259744e+01
 Spin= Alpha
 Occup=  1.00000000000000000e+00
  1 -3.11080876715520531e-04
  2 -3.17414445808601698e-04
  3 -1.73400422195883221e-04
  4  5.18729489675742744e-06
  5 -2.65675164413162711e-04
  6  7.19668052826518898e-04
  7 -2.50760901233113302e-04
  8  3.19386338457082993e-05
  9 -4.97443281361161123e-04
 10 -5.20724960770108298e-04
 11  3.71422640576814122e-05
 12 -3.44436468918815012e-05
 13  2.62712577176450908e-04
 14  1.27647083562233867e-04
 15  2.58405107839086473e-04
 16  1.37431351899270990e-05
 17 -3.41585918807071120e-05
 18 -4.26226851222096087e-05
 19 -2.59563068163681386e-04
 20  1.90995961538088175e-04
 21  9.76889657781498531e-05
 22 -8.96035806090833943e-04
 23  2.32776183966812821e-05
 24  4.53795344978933401e-05
 25 -2.33278684846115674e-05
 26  5.63583512125500952e-01
 27  4.66734870382597200e-01
 28  4.49058529567648206e-04
 29  2.43148772549857945e-05
 30  7.37410983919409031e-04
 31  2.94119742736195485e-03
 32 -4.15877961756473658e-04
 33 -1.50585028152818109e-05
 34 -6.61895622323497223e-04
 35 -1.38589126445916614e-04
 36  2.72460506668455215e-04
 37  1.55326781617209290e-06
 38  4.79830131548252697e-04
 39  2.24644961632957453e-04
 40 -1.47141802696767744e-04
 41 -1.28283225909901603e-04
 42  5.33270241531660417e-04
 43  1.67538906473380361e-04
 44 -1.58637059127498300e-04
 45 -8.79399596547237282e-04
 46 -1.24951371259564964e-04
 47  1.11808847685488993e-04
 48  3.47635307820616003e-04
 49 -1.59973908966475189e-04
 50  5.37517992176289746e-04
 51  2.53328421901929252e-03
 52  2.04653556714399446e-03
 53  1.57671412114132169e-04
 54  2.28771012678010038e-05
 55 -6.19822996490689538e-07
 56  2.66102543557880449e-04
 57  1.44486450691304954e-04
 58  1.80329483611852835e-05
 59 -1.86670765172203580e-05
 60 -7.83042329553828632e-05
 61  5.89726091779266463e-05
 62  9.34618325708627721e-06
 63 -9.24284748749827374e-05
 64 -9.94723416138141941e-05
 65  3.72181930195875384e-05
 66  7.87550222356671622e-06
 67 -6.22822708978299159e-06
 68 -3.74729015302143106e-06
 69 -1.22850859482942802e-03
 70  7.07733667364175012e-05
 71  1.27069082606992995e-05
 72 -6.99490922135959855e-06
 73  6.07893258948855155e-06
 74 -5.67453878700753079e-06
 75  8.65618135399564301e-06
 76  2.35135081813362316e-05
 77  1.26016714305216096e-05
 78 -8.34202021163862438e-06
 79  3.36224012955284481e-06
 80  5.74408854521333800e-06
 81  3.65412815025284015e-05
 82  3.54073474676217681e-05
 83 -7.07880310318221439e-06
 84 -4.18491083689830634e-05
 85  8.25352024840254726e-05
 86 -1.76568073123685588e-05
 87 -9.83269042783381288e-07
 88 -1.17918115846707832e-05
 89 -2.40796442907198435e-06
 90 -2.03557749368170824e-05
 91  2.85181853521383173e-06
 92  4.48318562136814249e-06
 93 -3.61582079288949958e-06
 94 -7.80293176099820535e-04
 95 -1.41151509566421181e-04
 96 -6.57469387932477066e-05
 97 -5.15798771079390697e-04
 98  5.21585737618066861e-06
 99 -4.26140875597547795e-06
100  7.06456904688865766e-06
101 -2.00610445679638281e-05
102 -1.89031510569231973e-05
103 -5.18256304123613777e-06
104  3.17868786369184917e-06
105  4.72271912907607621e-06
106  4.88594698762760014e-06
107  2.01882551845833172e-05
108 -1.17246991468214727e-05
109 -1.16135148722815051e-05
110  4.94683009848567972e-05
111 -1.20573272368702102e-05
112  3.14581092979412659e-06
113  3.95605494452851958e-05
114 -5.59927418401527821e-06
115  5.05081943783743700e-06
116  1.67828928000867019e-06
117  3.95241841884923963e-06
118 -5.59841211528051492e-06
119  9.31429207477394751e-04
120 -3.19508456486400469e-04
121 -1.81956232198463599e-04
122 -2.11612511402062156e-04
123  1.89282592411499735e-06
124 -1.13880026636847686e-05
125 -3.01554773055658922e-05
126  2.13212330468813987e-06
127  6.18531395420560592e-07
128 -1.02091213790387908e-04
129 -5.67162963687629698e-05
130 -5.78105631513770634e-05
131 -2.09211452413139727e-06
132 -2.20437093114544882e-06
133  1.97304701867970176e-05
134  5.86658351375738503e-05
135  2.11193712467791838e-05
136  1.38343953839211398e-05
137 -8.32149635556251878e-05
138 -1.31100161928979952e-04
139  1.50927550903591802e-05
140 -2.01668227315104519e-05
141  1.07524855865859123e-04
142  3.38811924079396410e-05
143 -1.53593472139214733e-05
144 -1.16164564946927260e-05
145 -1.42833140553674598e-05
146  5.28336592529093808e-06
147  1.64668480492966853e-03
148  2.29113148012277321e-04
149  2.45642322474741263e-04
150 -2.24676297791992144e-04
151 -4.22647996559723209e-06
152  2.01799970960218386e-05
153 -5.94738614607436529e-05
154  2.48473176057093676e-06
155  2.72500119791391585e-05
156 -1.45302334768518908e-04
 Sym= A
 Ene= -1.14634221217456744e+01
 Spin= Alpha
 Occup=  1.00000000000000000e+00
  1 -1.27248422217704781e-04
  2 -1.77719957074037654e-04
  3 -6.37905449689115615e-05
  4 -2.72889879235900553e-05
  5  1.03649346348843672e-04
  6  3.71093585172245261e-04
  7 -2.89125805695284626e-04
  8 -1.41141155412174431e-04
  9  6.88687705746008727e-04
 10  1.27053767344105246e-03
 11 -6.29804939767071429e-04
 12 -1.15437093687665630e-04
 13  2.83388354927996096e-04
 14  2.05160683373229255e-04
 15 -3.02833969463426006e-04
 16 -1.05433444206325320e-04
 17  5.17758124131656287e-05
 18  6.16243329241439195e-05
 19  2.12646479895688481e-03
 20 -2.82318506590676299e-04
 21 -1.31246745245557306e-04
 22  1.81129966329835710e-04
 23  1.08758613264327593e-05
 24  5.10819057382051953e-05
 25  1.07578173328193072e-04
 26  6.41072110638873027e-05
 27  4.39978009442419389e-05
 28 -8.11425539353472072e-06
 29 -2.91547375231149335e-06
 30 -3.78167094183178348e-06
 31  7.70267254450876184e-05
 32  6.66696008897424858e-05
 33  1.06023096863916967e-05
 34  5.98707809595147228e-05
 35 -5.65504403114803350e-04
 36  2.82422724329482733e-04
 37  6.13994894970729067e-05
 38 -3.89536429936906069e-04
 39  4.15295361224627305e-05
 40  4.42857525270336415e-05
 41 -3.76460465286751999e-06
 42 -2.19860203881987443e-05
 43 -1.15776417165754632e-05
 44 -2.02257283333087418e-03
 45  2.87823991091167887e-04
 46  1.11656965799161501e-04
 47 -3.09524892204970968e-04
 48  1.62698371999213537e-05
 49 -8.03192074386267562e-05
 50 -8.15704254367045759e-05
 51 -6.31109812791930174e-05
 52 -5.12447170184721494e-05
 53 -1.01499538677058426e-05
 54 -4.00460137003924923e-06
 55  5.81487063709594862e-06
 56 -2.50130588707006347e-05
 57  5.62958309689553230e-05
 58  2.07721229196534499e-05
 59 -4.07424570769544686e-05
 60  3.58461859178468303e-04
 61  1.19243805128749068e-04
 62 -4.12086708858652442e-06
 63  1.52502015500178775e-04
 64 -2.02677252741375149e-05
 65  4.48816787453146384e-06
 66  2.60389112661058895e-08
 67  2.26812920163868627e-05
 68  3.35231076216787297e-06
 69  2.06649038100203833e-03
 70  3.28412703790629818e-04
 71 -6.19125555853342859e-06
 72  3.35590006839079789e-04
 73 -2.47635900700907233e-06
 74  2.49299876047801941e-05
 75  1.50446773651927297e-05
 76 -4.65480451575521993e-05
 77 -3.67042098353244630e-05
 78  4.52644864818076991e-07
 79 -2.28600302520049955e-06
 80 -1.07479746236900119e-06
 81 -3.74876618788701411e-05
 82 -1.88821927211081657e-05
 83  1.67127283114558358e-06
 84 -1.48390879911738917e-05
 85 -1.36891901312401966e-05
 86  9.02859051458559117e-05
 87  4.19108385364358886e-05
 88  7.57445062962360270e-05
 89  1.24063420753834048e-05
 90 -1.68794722014328870e-06
 91  1.03823873665258271e-05
 92  9.87849396669701312e-06
 93 -1.02597975433955336e-05
 94 -2.51846075113307472e-03
 95 -4.04414388923217058e-04
 96 -3.16138187599105210e-05
 97 -3.23492425141665835e-04
 98 -3.99225324653340693e-07
 99  2.34542692051483291e-05
100  1.03499004840678103e-04
101  3.73693951966671579e-03
102  3.04296366238480769e-03
103  1.14777615374826036e-04
104 -4.78091813153449564e-05
105  9.66951858209645099e-06
106  2.44977944835742694e-04
107  2.63522279449120557e-04
108 -5.39893729604704577e-05
109 -4.03819646807307086e-05
110  7.62619057541404446e-04
111  3.62281001950102673e-04
112 -2.42625395762812118e-04
113  1.75942326360679940e-04
114 -4.67986160902678335e-05
115 -4.49343748008534599e-05
116 -3.41784469560733802e-06
117  7.96757413269801208e-05
118 -3.84339778025168550e-05
119  3.06462081642632162e-03
120  1.23609369250070328e-04
121 -2.63500267950971911e-04
122 -5.23346308163705220e-04
123 -6.69175434389055192e-06
124  2.23873662146502873e-05
125 -4.09045113079179617e-05
126  4.18128863831864592e-06
127 -7.41700815419765161e-05
128 -1.34442749706577253e-04
129  5.63474886324435542e-01
130  4.66587097161460351e-01
131  5.01963885709292386e-04
132  3.31752751456158574e-04
133 -1.17469636115547535e-03
134  4.04567914656158833e-03
135 -4.31308651030137174e-04
136 -3.14018990715376762e-04
137  1.06490442431771398e-03
138 -3.02647844579205690e-03
139  3.45003063386801155e-04
140  1.81313242315053761e-05
141 -1.06993156647508408e-05
142 -2.88920602008005205e-04
143  3.76105668068300609e-04
144  1.98219321299786304e-04
145 -1.19643100913339838e-04
146 -3.11956028036802175e-05
147 -3.12111012971676930e-03
148  4.81413129748706144e-05
149 -9.31649171902952075e-05
150  4.06369789253843879e-04
151  3.06624260691846064e-04
152  1.88819268166538057e-04
153  7.16636762632859412e-04
154  3.04255394032913523e-04
155  1.09104276801391830e-04
156  7.07261764790629308e-04
 Sym= A
 Ene= -1.14360469941420533e+01
 Spin= Alpha
 Occup=  1.00000000000000000e+00
  1 -5.75925047991224824e-06
  2  1.79985676620723020e-06
  3 -7.19943385395117049e-06
  4  1.43583660132805404e-07
  5 -2.05020858349088162e-06
  6 -4.24222957930715970e-05
  7  1.84234237724339832e-05
  8 -3.42730518337811979e-06
  9  2.18130667098653837e-05
 10  4.18274772403862116e-04
 11 -2.69794233625549257e-04
 12 -3.26133977896184794e-05
 13 -9.15297601043914673e-05
 14 -1.05605225359695572e-05
 15 -4.90720748289351053e-06
 16  2.04311212307675813e-06
 17 -1.62679875796824058e-07
 18  3.33947717686770920e-06
 19 -1.41144743604833538e-03
 20  1.72548370618523435e-04
 21 -9.67993478679807652e-05
 22  1.09819639919128925e-03
 23 -7.97945549374446554e-06
 24  3.19210407681931442e-05
 25  6.91840171875727155e-05
 26  5.79771641417664726e-04
 27  5.02477559245113631e-04
 28  1.48603909977126752e-05
 29  1.51393659858809626e-06
 30  4.91861189715965647e-06
 31 -7.49538366878565700e-05
 32  1.52009268189184823e-04
 33  1.79125853034412601e-05
 34 -1.03063368950896936e-05
 35 -5.07120718822492858e-04
 36  5.18745078647368899e-05
 37  3.51300943936237267e-05
 38 -2.82672928723720033e-04
 39  4.36513245227828115e-05
 40  4.15646026693117576e-05
 41  7.09643328012531425e-06
 42 -2.97549221942131442e-05
 43 -4.60491176028328259e-06
 44  2.85766423294188734e-03
 45  5.30171920788762041e-04
 46  1.71186814099132369e-05
 47  7.63575636486073651e-04
 48  4.86903489377903752e-07
 49 -3.23632103124914025e-05
 50 -9.26772060667724177e-05
 51 -1.18738316230186394e-01
 52 -9.82875133107505988e-02
 53 -2.52354128339904239e-05
 54 -2.49507830305747810e-05
 55 -2.02106112300488020e-04
 56 -1.39459747788874943e-03
 57  1.89597561311347589e-04
 58  1.72355258909757219e-05
 59 -1.13147215595347570e-04
 60  1.08162585831309151e-03
 61 -5.39248243904821054e-06
 62  6.04143170453578317e-06
 63  3.30175697889631219e-04
 64 -5.58415356113452704e-05
 65  1.20565162916151959e-04
 66  1.72476422124983527e-05
 67  9.88889895590737948e-05
 68  4.35227421063572151e-05
 69 -1.63108666323755376e-03
 70  1.85028627536934124e-04
 71  4.51330777099447241e-05
 72 -7.31415035450218949e-04
 73 -9.72191218985207425e-05
 74  3.52592687396147654e-05
 75 -4.75021351642322714e-05
 76 -5.50719086691319415e-01
 77 -4.56042715925393027e-01
 78 -1.40497503858318329e-04
 79 -4.49130717678686137e-05
 80 -9.34859872393287156e-05
 81 -3.28161596683285324e-03
 82 -1.83722352034751787e-05
 83  3.69572792225888967e-05
 84  3.44122374201974619e-04
 85 -3.53342809711707385e-04
 86 -2.99026199888959530e-04
 87 -4.58901418903544424e-06
 88  4.63101629674340985e-05
 89 -3.58187163925791552e-04
 90  2.32644701570805008e-04
 91 -1.41263883279141484e-04
 92 -6.09039235931323002e-04
 93 -1.16416289186838977e-04
 94  1.95421799961623208e-03
 95 -7.68164136986241767e-05
 96 -1.39916927096462391e-04
 97 -2.90318368472198033e-05
 98 -3.63315033162975418e-04
 99  1.52866452432062934e-04
100 -4.29246065584289128e-04
101 -1.09229078275856328e-02
102 -8.97649160792448469e-03
103  4.38103385494315332e-05
104  3.48331512593565788e-05
105  1.07080029323302316e-04
106 -4.24954545413076693e-04
107  1.65141094666354613e-04
108  4.95506159039480189e-05
109  2.66531795777986014e-04
110  5.70111695584893060e-04
111  4.00340730093577384e-05
112 -1.38105127128973113e-04
113 -1.35220812135605398e-04
114 -9.37946757764198118e-05
115 -1.05859373860381513e-04
116 -3.76516777068401255e-05
117  4.27265715401189673e-05
118 -3.02060315116572923e-05
119 -1.75325971674205813e-03
120 -5.04909915771003625e-05
121  3.69247997558343991e-04
122  1.39464753908471897e-04
123  5.99231447889770373e-06
124 -4.04020768410443955e-05
125  1.00600766176515210e-04
126 -5.59281772075563805e-06
127 -1.11041685576343481e-04
128  1.76547453378488847e-04
129  1.21729985791008505e-05
130  1.53530796665209220e-05
131 -1.32673027223939122e-05
132  7.85425703462449888e-06
133 -5.74051745347619179e-06
134  9.62508588402892322e-06
135  5.52664459113623549e-05
136 -3.56966694758072074e-05
137  1.88823435788548501e-05
138 -3.80608399812560499e-04
139  1.14256579814234465e-04
140  3.96408922422640810e-05
141  3.85109205935854078e-05
142  2.01271785008461763e-05
143 -4.35470659079270550e-06
144  8.91517431411441424e-06
145 -1.52590771811884634e-05
146  2.44396888704318153e-05
147 -2.37180957795156096e-04
148 -6.63476765271488514e-04
149 -1.72608913170264595e-04
150  1.95194941600301814e-04
151 -9.32697122641769507e-06
152  7.48095666466061374e-05
153  1.77145304143337115e-05
154 -6.35885810518202079e-06
155 -5.85836529210166977e-06
156  8.49092273853907048e-05
 Sym= A
 Ene= -1.14322391590290078e+01
 Spin= Alpha
 Occup=  1.00000000000000000e+00
  1 -9.94718561520909712e-06
  2  1.12920405433028484e-06
  3 -5.44390313239175826e-06
  4  4.27436028489914710e-06
  5 -9.73257107964370058e-06
  6 -7.00858813805466487e-05
  7  1.41847831867205547e-05
  8 -2.49581559912569232e-05
  9  5.69964655802738930e-05
 10  7.75295682761792913e-04
 11 -4.35696036457404597e-04
 12 -3.20165079811497927e-05
 13 -4.96842745503206298e-05
 14 -2.96898132314847469e-06
 15 -3.60127795249613451e-05
 16 -1.90900280916389048e-06
 17 -6.86110887889957912e-06
 18  8.76373756824533754e-06
 19 -1.86425074167426846e-03
 20  2.35425650557669086e-04
 21 -1.26552836914090863e-04
 22  8.66107480649658821e-04
 23 -7.80904112401984323e-06
 24  3.95005983702009000e-05
 25  7.76801947694460157e-05
 26  2.59834815138531476e-03
 27  2.23630296199703359e-03
 28  1.52284009464593938e-04
 29  2.26425624745069847e-05
 30 -1.00553410805117138e-05
 31 -3.23368550962573238e-04
 32  4.37510391196279259e-04
 33  6.23640899097670242e-05
 34  4.54122586706311030e-05
 35 -9.09244229567467924e-04
 36  2.70332824235768260e-04
 37  7.60186976009860133e-05
 38 -6.16058398365349554e-04
 39  1.59025798484754204e-04
 40  4.27669933618436590e-05
 41  8.74548849575638670e-06
 42 -1.04868597390460152e-04
 43 -2.72319114935333955e-05
 44  3.59289583740521204e-03
 45  2.82895807567592463e-04
 46  5.11020443268426789e-05
 47  7.98841397914605567e-04
 48  3.30390584032543582e-06
 49 -8.62236095791850258e-05
 50 -2.11636852164659548e-04
 51 -5.50488156074762758e-01
 52 -4.55976036821195418e-01
 53 -6.94762569387391104e-04
 54 -7.63383243216791317e-05
 55  7.06783155909792291e-05
 56 -5.09009472225749066e-03
 57  7.22386301869463879e-04
 58  3.62989678471894881e-05
 59 -5.04931951693936244e-04
 60  1.82597437637207582e-03
 61  6.61213018499573821e-05
 62  4.86673468240881256e-05
 63  5.68231952282803490e-04
 64 -3.06746387131714049e-04
 65  2.67426811227576078e-04
 66 -2.04549980309274542e-05
 67 -2.00352495243164656e-05
 68  3.68509934469100236e-05
 69 -3.95564298242503509e-03
 70 -6.54775156890621959e-05
 71 -1.02245735644408705e-04
 72 -1.26435107784071341e-03
 73 -3.96534263150091163e-04
 74  1.91139703957909137e-04
 75 -3.10773596572927263e-04
 76  1.19003475202490411e-01
 77  9.85775262783432082e-02
 78 -1.25719211663806593e-04
 79  2.42581494009008275e-05
 80  2.90685618963383964e-04
 81  5.28656430861654367e-04
 82  1.25994378646810941e-04
 83 -1.80910879809941637e-05
 84 -3.47214279065363686e-04
 85 -2.72292644008625495e-04
 86 -2.99827367581914791e-04
 87  1.27456576697113970e-05
 88  1.76942956145390267e-04
 89  1.84787529127285909e-04