[Molden Format]
[Atoms] (AU)
C    1    6         2.654475671432       0.055814226887      -0.229039677364
H    2    1         4.692980978821       0.235147453993      -0.346561428955
C    3    6         1.329745899694       0.142250580301      -2.332308402392
H    4    1         2.216500828928       0.389477932428      -4.096595925881
C    5    6        -1.329745900639      -0.142250567829      -2.332308409951
H    6    1        -2.216500837432      -0.389477941499      -4.096595923614
C    7    6        -2.654475673322      -0.055814214415      -0.229039685678
H    8    1        -4.692980961625      -0.235147480449      -0.346561425553
C    9    6        -1.398835737395       0.400661311797       2.261441507439
H   10    1        -1.595601858272       2.429931884391       2.666753511198
H   11    1        -2.437535925190      -0.557878960861       3.764087664845
C   12    6         1.398835741552      -0.400661305561       2.261441505549
H   13    1         1.595601860539      -2.429931882312       2.666753491544
H   14    1         2.437535912529       0.557878963318       3.764087674483
[GTO]
  1 0
 s    6  1.00
     4563.2400000000         0.0019666500
      682.0240000000         0.0152306000
      154.9730000000         0.0761269000
       44.4553000000         0.2608010000
       13.0290000000         0.6164620000
        1.8277300000         0.2210060000
 s    3  1.00
       20.9642000000         0.1146600000
        4.8033100000         0.9199990000
        1.4593300000        -0.0030306800
 p    3  1.00
       20.9642000000         0.0402487000
        4.8033100000         0.2375940000
        1.4593300000         0.8158540000
 s    1  1.00
        0.4834560000         1.0000000000
 p    1  1.00
        0.4834560000         1.0000000000
 s    1  1.00
        0.1455850000         1.0000000000
 p    1  1.00
        0.1455850000         1.0000000000
 d    1  1.00
        0.6260000000         1.0000000000
 s    1  1.00
        0.0438000000         1.0000000000
 p    1  1.00
        0.0438000000         1.0000000000

  2 0
 s    3  1.00
       33.8650000000         0.0254938000
        5.0947900000         0.1903730000
        1.1587900000         0.8521610000
 s    1  1.00
        0.3258400000         1.0000000000
 s    1  1.00
        0.1027410000         1.0000000000

  3 0
 s    6  1.00
     4563.2400000000         0.0019666500
      682.0240000000         0.0152306000
      154.9730000000         0.0761269000
       44.4553000000         0.2608010000
       13.0290000000         0.6164620000
        1.8277300000         0.2210060000
 s    3  1.00
       20.9642000000         0.1146600000
        4.8033100000         0.9199990000
        1.4593300000        -0.0030306800
 p    3  1.00
       20.9642000000         0.0402487000
        4.8033100000         0.2375940000
        1.4593300000         0.8158540000
 s    1  1.00
        0.4834560000         1.0000000000
 p    1  1.00
        0.4834560000         1.0000000000
 s    1  1.00
        0.1455850000         1.0000000000
 p    1  1.00
        0.1455850000         1.0000000000
 d    1  1.00
        0.6260000000         1.0000000000
 s    1  1.00
        0.0438000000         1.0000000000
 p    1  1.00
        0.0438000000         1.0000000000

  4 0
 s    3  1.00
       33.8650000000         0.0254938000
        5.0947900000         0.1903730000
        1.1587900000         0.8521610000
 s    1  1.00
        0.3258400000         1.0000000000
 s    1  1.00
        0.1027410000         1.0000000000

  5 0
 s    6  1.00
     4563.2400000000         0.0019666500
      682.0240000000         0.0152306000
      154.9730000000         0.0761269000
       44.4553000000         0.2608010000
       13.0290000000         0.6164620000
        1.8277300000         0.2210060000
 s    3  1.00
       20.9642000000         0.1146600000
        4.8033100000         0.9199990000
        1.4593300000        -0.0030306800
 p    3  1.00
       20.9642000000         0.0402487000
        4.8033100000         0.2375940000
        1.4593300000         0.8158540000
 s    1  1.00
        0.4834560000         1.0000000000
 p    1  1.00
        0.4834560000         1.0000000000
 s    1  1.00
        0.1455850000         1.0000000000
 p    1  1.00
        0.1455850000         1.0000000000
 d    1  1.00
        0.6260000000         1.0000000000
 s    1  1.00
        0.0438000000         1.0000000000
 p    1  1.00
        0.0438000000         1.0000000000

  6 0
 s    3  1.00
       33.8650000000         0.0254938000
        5.0947900000         0.1903730000
        1.1587900000         0.8521610000
 s    1  1.00
        0.3258400000         1.0000000000
 s    1  1.00
        0.1027410000         1.0000000000

  7 0
 s    6  1.00
     4563.2400000000         0.0019666500
      682.0240000000         0.0152306000
      154.9730000000         0.0761269000
       44.4553000000         0.2608010000
       13.0290000000         0.6164620000
        1.8277300000         0.2210060000
 s    3  1.00
       20.9642000000         0.1146600000
        4.8033100000         0.9199990000
        1.4593300000        -0.0030306800
 p    3  1.00
       20.9642000000         0.0402487000
        4.8033100000         0.2375940000
        1.4593300000         0.8158540000
 s    1  1.00
        0.4834560000         1.0000000000
 p    1  1.00
        0.4834560000         1.0000000000
 s    1  1.00
        0.1455850000         1.0000000000
 p    1  1.00
        0.1455850000         1.0000000000
 d    1  1.00
        0.6260000000         1.0000000000
 s    1  1.00
        0.0438000000         1.0000000000
 p    1  1.00
        0.0438000000         1.0000000000

  8 0
 s    3  1.00
       33.8650000000         0.0254938000
        5.0947900000         0.1903730000
        1.1587900000         0.8521610000
 s    1  1.00
        0.3258400000         1.0000000000
 s    1  1.00
        0.1027410000         1.0000000000

  9 0
 s    6  1.00
     4563.2400000000         0.0019666500
      682.0240000000         0.0152306000
      154.9730000000         0.0761269000
       44.4553000000         0.2608010000
       13.0290000000         0.6164620000
        1.8277300000         0.2210060000
 s    3  1.00
       20.9642000000         0.1146600000
        4.8033100000         0.9199990000
        1.4593300000        -0.0030306800
 p    3  1.00
       20.9642000000         0.0402487000
        4.8033100000         0.2375940000
        1.4593300000         0.8158540000
 s    1  1.00
        0.4834560000         1.0000000000
 p    1  1.00
        0.4834560000         1.0000000000
 s    1  1.00
        0.1455850000         1.0000000000
 p    1  1.00
        0.1455850000         1.0000000000
 d    1  1.00
        0.6260000000         1.0000000000
 s    1  1.00
        0.0438000000         1.0000000000
 p    1  1.00
        0.0438000000         1.0000000000

  10 0
 s    3  1.00
       33.8650000000         0.0254938000
        5.0947900000         0.1903730000
        1.1587900000         0.8521610000
 s    1  1.00
        0.3258400000         1.0000000000
 s    1  1.00
        0.1027410000         1.0000000000

  11 0
 s    3  1.00
       33.8650000000         0.0254938000
        5.0947900000         0.1903730000
        1.1587900000         0.8521610000
 s    1  1.00
        0.3258400000         1.0000000000
 s    1  1.00
        0.1027410000         1.0000000000

  12 0
 s    6  1.00
     4563.2400000000         0.0019666500
      682.0240000000         0.0152306000
      154.9730000000         0.0761269000
       44.4553000000         0.2608010000
       13.0290000000         0.6164620000
        1.8277300000         0.2210060000
 s    3  1.00
       20.9642000000         0.1146600000
        4.8033100000         0.9199990000
        1.4593300000        -0.0030306800
 p    3  1.00
       20.9642000000         0.0402487000
        4.8033100000         0.2375940000
        1.4593300000         0.8158540000
 s    1  1.00
        0.4834560000         1.0000000000
 p    1  1.00
        0.4834560000         1.0000000000
 s    1  1.00
        0.1455850000         1.0000000000
 p    1  1.00
        0.1455850000         1.0000000000
 d    1  1.00
        0.6260000000         1.0000000000
 s    1  1.00
        0.0438000000         1.0000000000
 p    1  1.00
        0.0438000000         1.0000000000

  13 0
 s    3  1.00
       33.8650000000         0.0254938000
        5.0947900000         0.1903730000
        1.1587900000         0.8521610000
 s    1  1.00
        0.3258400000         1.0000000000
 s    1  1.00
        0.1027410000         1.0000000000

  14 0
 s    3  1.00
       33.8650000000         0.0254938000
        5.0947900000         0.1903730000
        1.1587900000         0.8521610000
 s    1  1.00
        0.3258400000         1.0000000000
 s    1  1.00
        0.1027410000         1.0000000000

[5D]
[9G]

[MO]
 Sym= A
 Ene= -1.25512620314449723e+01
 Spin= Alpha
 Occup=  1.00000000000000000e+00
  1 -3.22808584091749634e-04
  2  1.45246052683333437e-03
  3 -9.98318983867192570e-04
  4  1.20968581472724758e-04
  5 -2.06463909660974804e-03
  6 -5.87729576473608115e-03
  7  7.33007213070338819e-03
  8 -7.48911087562441347e-04
  9  1.40348616051718146e-02
 10  6.67313729104219554e-03
 11 -8.71983150834081122e-03
 12 -4.05667328344578554e-05
 13 -3.34668779843344186e-03
 14 -4.30507017728420319e-03
 15 -6.88452333600071600e-03
 16  2.49157949850029048e-04
 17 -1.63535008774316716e-03
 18  3.98754081032461744e-04
 19 -3.57890661240819405e-02
 20  3.55615094562224338e-03
 21 -1.25684274735673052e-03
 22  8.77583165521226422e-03
 23 -9.20667178267383941e-04
 24  6.36033747574362698e-04
 25  4.98216178179534605e-03
 26 -6.22293910222422642e-01
 27 -4.21041238735746171e-01
 28  2.02869378259375128e-04
 29  2.09068931418787148e-04
 30 -1.78954039140121032e-03
 31  5.09933916040496774e-02
 32  2.44628533631633771e-04
 33 -1.21837916015703424e-03
 34  1.19179700869088568e-02
 35 -4.24944263245819326e-02
 36  6.27252912262121418e-03
 37  1.46173505957598870e-03
 38 -1.19834021973369842e-02
 39  1.54508725839965465e-03
 40  5.28439932739341398e-03
 41 -2.31086546457195361e-04
 42  4.04848171218544217e-03
 43  3.22814964505399528e-04
 44  7.33077952418221823e-02
 45 -4.33291337977723210e-03
 46 -1.78625113988614670e-03
 47  1.55169279629488958e-02
 48  3.78871172316616513e-04
 49 -2.56073067294434412e-03
 50  2.21904766942354484e-03
 51 -1.02560970514728648e-04
 52  5.60174678127732116e-04
 53  2.05281981910594409e-03
 54  1.66545357901748859e-04
 55 -3.07376306503095141e-04
 56 -8.77328380198308519e-04
 57 -9.42694239587470000e-03
 58 -6.88417728919008898e-04
 59  2.36218377017730855e-03
 60  1.23282980514014869e-02
 61  8.17389798937679865e-03
 62  1.10092975422607878e-03
 63  7.92180851346292389e-03
 64  3.47145531578689926e-03
 65 -8.03676593411363147e-04
 66  2.75944899761812121e-04
 67 -3.96059787250830492e-03
 68 -1.07039197256140811e-03
 69 -4.40916948712640963e-02
 70 -4.23099127484383771e-03
 71  3.77409901965501953e-04
 72 -4.30735925957387127e-03
 73 -7.37573202234896629e-04
 74  1.20586595922756671e-03
 75  5.08424423807192060e-03
 76 -6.26234996196859279e-05
 77  3.18823979320458908e-04
 78  1.50676322852231120e-04
 79  1.93168817948497336e-05
 80 -3.33816058528230077e-04
 81 -1.84134564698565806e-03
 82 -2.12990521589783701e-03
 83 -3.68444350529219865e-05
 84  3.09416614369199859e-03
 85 -9.32037312133236068e-03
 86 -3.78664935113537339e-03
 87 -3.29064542280939560e-04
 88 -1.38143679865924138e-03
 89 -4.90058429031265731e-04
 90  1.69442341238814731e-03
 91  1.12601363009081577e-04
 92  4.14912238835384305e-05
 93  1.36237870511935638e-04
 94  1.39599450121244244e-02
 95  3.28450819978358659e-03
 96 -7.00391626276061037e-04
 97 -4.65354214573834336e-03
 98 -2.59934099285441815e-04
 99 -4.58653790893240982e-04
100  1.01442261552102311e-03
101 -3.64990780206822583e-05
102  2.28260723694344238e-04
103  2.90744486578044709e-05
104 -6.02995227766426402e-05
105 -4.82510655288165472e-05
106 -1.62681783728176044e-03
107 -2.94416478133076136e-04
108  3.38088503653246556e-04
109  6.28871304013372341e-04
110  8.17455364881417706e-03
111  1.50340536001914685e-03
112 -3.30448823424386515e-04
113 -2.48048969762456337e-03
114  2.54117535405792739e-05
115 -3.60703721844905876e-04
116 -5.01352840137466371e-05
117 -3.56720537493850223e-05
118  9.40404384551846628e-05
119 -1.91244118153944404e-02
120 -6.91049220645230649e-03
121  2.77189747289891431e-04
122  1.52893390918602563e-03
123  2.03213225642652452e-04
124 -1.50281021823963365e-03
125  1.77268187933039747e-03
126 -5.71340583108722496e-05
127 -5.69891192637170425e-04
128  1.33405699472764804e-03
129 -4.54915525018679821e-05
130  2.69054739946470052e-04
131  2.21770313119836821e-04
132  1.49689355440409957e-05
133 -3.69634760586890919e-04
134 -9.68440874861911530e-04
135 -1.05944280278957728e-03
136 -2.60144365525822577e-04
137  2.30778517461173146e-03
138 -5.23829281462000456e-03
139  1.97295067545642192e-03
140 -1.79296172486180494e-03
141  5.68465971335427225e-04
142 -9.30508760751651916e-04
143  1.07158535872826119e-03
144  3.88755097752922307e-04
145  2.14580201146301135e-04
146 -4.73332395164430313e-05
147  1.08479344685671417e-02
148 -4.91818152350313210e-03
149  2.27300257639039384e-03
150  1.16133774593194764e-03
151  1.52103492606416545e-04
152 -6.61541061147774318e-04
153 -4.42998708536831206e-04
154 -3.09541418195778011e-04
155  4.53598856685534730e-04
156  4.51468977178792210e-04
 Sym= A
 Ene= -1.04726657966416195e+01
 Spin= Alpha
 Occup=  1.00000000000000000e+00
  1 -5.62981798738666050e-01
  2 -4.63373735518479213e-01
  3 -4.26177134577166477e-05
  4 -1.05400137161265433e-04
  5  3.53181709718865429e-04
  6 -1.85740187112329556e-02
  7  3.06102511643761713e-03
  8  7.12904829415027643e-05
  9  2.87046306266747382e-03
 10  1.28067239762848246e-02
 11 -3.04908464900087743e-03
 12 -4.97325863906771274e-04
 13  1.53363942582780737e-04
 14 -1.82291878615136902e-03
 15 -1.55454420882222290e-03
 16  2.64220937367412004e-04
 17 -7.63127638942136559e-04
 18  8.01578338137552289e-06
 19 -1.75194208505465958e-02
 20  4.67616248131033120e-03
 21  1.50184138247962747e-03
 22 -5.14425957780881944e-04
 23 -3.07714992688472007e-04
 24  8.46808771692751259e-04
 25 -1.53184299825346562e-03
 26  2.77201336768793656e-04
 27 -2.59476313924321617e-04
 28 -6.77809282865993569e-04
 29  2.04338358588662853e-05
 30 -8.20253717346462676e-04
 31  1.66837414743976854e-03
 32  3.80590017680876693e-03
 33 -1.05670352276020999e-04
 34  4.56095134530683233e-03
 35 -6.88573188868623156e-04
 36 -6.53200829992623615e-05
 37  4.04000837560309636e-04
 38 -2.99896703181624187e-03
 39  1.84869529513896126e-03
 40  2.24452025343373088e-03
 41 -1.19307264745992708e-04
 42  2.37065281094505834e-04
 43 -1.96304176602348857e-04
 44  7.22233554058715737e-03
 45  4.06814917880787678e-04
 46 -6.48260031163804614e-04
 47 -1.41490878433458083e-04
 48  3.10610863925772889e-04
 49 -2.87612141422294743e-04
 50 -1.75831717038200551e-03
 51  6.54901100414883436e-05
 52 -4.62614588341544170e-05
 53 -2.21839023323644653e-04
 54 -2.16940016758226100e-05
 55  7.70439679182399707e-05
 56  4.43079356697288220e-04
 57  1.63274696528813265e-03
 58  1.36849698795874630e-04
 59 -3.95195164948959642e-04
 60  6.00439522253334249e-04
 61 -4.70984174380463332e-04
 62 -1.32305205853684753e-04
 63  3.53290491407907232e-04
 64 -7.05177667474176707e-04
 65  2.19985952552336476e-04
 66  2.78105569082377564e-05
 67  4.28814169556121060e-04
 68  1.05380980061106893e-04
 69  1.36808924404717563e-02
 70 -2.80474539359760631e-03
 71  1.12081204653772959e-04
 72  3.30001331480870522e-03
 73  1.14051029796473065e-04
 74  6.52285749913093327e-05
 75 -6.84725044240057867e-04
 76  5.23179744989745038e-05
 77 -4.51013887497606614e-05
 78 -1.71816806560360475e-05
 79  1.51093600842259890e-06
 80  3.32774489361665416e-05
 81  5.23039225509286583e-04
 82  4.07955838677338020e-04
 83 -2.09517036282274196e-05
 84 -4.75597910617772777e-04
 85 -4.56544541753662247e-04
 86 -1.77215303131228333e-04
 87  1.89731459456109799e-04
 88  8.74686459435542840e-05
 89  9.80092691455361562e-05
 90 -2.62995560929422619e-04
 91  4.71412415805095791e-05
 92 -2.66708510519607737e-05
 93 -1.21700719562338896e-05
 94 -7.67987736670870842e-03
 95 -1.25427787557890000e-03
 96  4.00835373592686023e-04
 97  5.37033462078913889e-03
 98  5.36957121987457451e-05
 99  5.83424989162889635e-05
100 -2.95359939209085588e-04
101  2.91696751143599150e-05
102 -3.18447807429489380e-05
103 -5.25844504003204570e-05
104 -7.32838381424912335e-06
105 -1.05915191527240151e-05
106  3.10945612479636587e-04
107  2.91916495914234565e-04
108 -1.57571625939916001e-05
109 -6.34101889790805712e-05
110 -5.51682353338132117e-05
111 -3.57108567580351232e-04
112 -6.74727321316735771e-04
113  6.40332493494208057e-05
114 -9.78968178064727415e-05
115  9.24051870038316707e-05
116  4.47602423495379378e-05
117  7.83478291629371363e-05
118 -3.56606983251922150e-05
119  1.29698633443893030e-03
120  3.82447783252003008e-03
121  4.38319917435667423e-04
122  1.31169281722607473e-03
123 -8.85378112369461994e-05
124  5.00584373084938367e-04
125 -1.04340219146346693e-04
126  7.07432717738787212e-05
127 -1.36931352302873907e-04
128 -4.04880100115182461e-04
129 -8.14725492948072854e-04
130 -7.58224355932391901e-04
131 -2.51328618791821646e-04
132 -8.69180730658887719e-05
133  4.32167626691984776e-04
134 -3.78282269924525624e-05
135  6.60348270227867698e-04
136  2.02125939046296147e-04
137 -1.04125643628518480e-03
138 -2.16857934783358302e-03
139 -2.26523759136057848e-04
140  9.96586855392757239e-05
141  1.51504636690106523e-03
142  6.48947761550724153e-04
143 -6.90792993715481723e-04
144 -2.47885742447002413e-04
145  2.63648919660134187e-04
146  1.95661861300468984e-04
147  3.06238994652739639e-03
148  2.07843499921501335e-03
149 -1.34162891111134250e-03
150 -2.89186743292296940e-03
151  1.88196152987846741e-04
152  2.08152911692445898e-04
153 -3.15912832892937189e-04
154  1.44630107697629599e-04
155 -5.43434303380244973e-05
156  1.04554482183493707e-05
 Sym= A
 Ene= -1.03893481231086255e+01
 Spin= Alpha
 Occup=  1.00000000000000000e+00
  1  4.27164900521165983e-05
  2  1.35754955020537290e-04
  3 -5.15528823604638118e-05
  4 -1.08664172714689398e-05
  5 -9.97225562579893011e-05
  6 -4.83153265690229041e-04
  7  6.49916857756783085e-04
  8  3.21268046832863706e-05
  9  8.97273718787522205e-04
 10 -3.63764807264541209e-03
 11  1.59028465961323336e-03
 12  1.21601056424669777e-04
 13 -3.32095911286725684e-04
 14 -1.44810315019721345e-04
 15 -4.97027513497604826e-04
 16 -3.53284863818296258e-05
 17  6.64311349039152361e-06
 18  3.14110159081123870e-05
 19  7.27780880391729230e-03
 20 -1.32537290474472489e-03
 21  3.73227676785323648e-04
 22 -2.71261061879742070e-03
 23 -6.97885494917074693e-05
 24 -1.87879775882115725e-04
 25  2.22383332813034769e-04
 26 -1.08821848815404568e-04
 27  4.09201383430112491e-05
 28 -7.56881689762616862e-04
 29 -6.41771131412337059e-05
 30 -9.32972068173418555e-05
 31 -7.85175640281337691e-06
 32  2.58345855469893420e-03
 33  1.78921035400671290e-04
 34  7.02981783927560870e-04
 35  4.28608846421339295e-03
 36 -2.56482816837055134e-03
 37 -3.81443902029641763e-04
 38  3.05391757048516970e-03
 39  9.55044665366506845e-04
 40  1.93851569526486801e-04
 41 -9.87448570894914631e-05
 42 -1.12718189170796170e-03
 43 -3.15919584755942895e-04
 44 -1.63096741192949035e-02
 45  1.53306624735790822e-04
 46 -2.07332920002839386e-04
 47 -2.54933173845456372e-03
 48 -2.27202602434991755e-04
 49  4.83067936477619899e-04
 50  1.76578106405848238e-03
 51  5.62654023059604991e-01
 52  4.63085952971185433e-01
 53  1.11612822260958038e-03
 54  5.43894135208966331e-05
 55 -5.31011054429576909e-04
 56  1.96035773901181432e-02
 57 -1.24440591386359642e-03
 58  3.14356945027912164e-04
 59  4.19724529106899925e-03
 60 -1.43985245619531275e-02
 61 -1.58844658757221991e-03
 62 -4.15871396703645089e-04
 63 -4.00343979309856872e-03
 64  9.43835677370019740e-04
 65 -1.96798418604864685e-03
 66  1.33005181749450347e-04
 67  1.43470315347172996e-03
 68  1.00557647190180414e-04
 69  2.40378438856353426e-02
 70  5.10013946193232513e-04
 71  4.97218777365456086e-04
 72  6.14604073305425463e-03
 73  3.42442011879164250e-04
 74 -1.13869118693372094e-03
 75  1.28210946817650605e-03
 76  1.42898655403626892e-02
 77  1.22963516874809026e-02
 78  4.06502465329225177e-04
 79 -4.97974646524838250e-05
 80 -8.30124235343435287e-04
 81 -1.49472241501565528e-03
 82 -2.51673438405444023e-03
 83  2.76262996461630540e-04
 84  4.94209497110981080e-03
 85  1.56034558781856648e-03
 86  2.74237979424313185e-03
 87 -4.77803485044714157e-05
 88 -1.28000174389163971e-03
 89 -1.47932850604332771e-03
 90  2.32401985598356276e-03
 91 -9.35435019812224538e-05
 92 -5.79844261566728279e-04
 93  1.29846154024764897e-04
 94 -1.20206703994334592e-02
 95 -8.70647105949672647e-04
 96  6.29835999648199968e-04
 97  3.54464274695450148e-03
 98 -2.97791360835072917e-04
 99  1.80598147091841848e-04
100  1.74567315781110847e-03
101 -1.18704014080019777e-04
102  1.26048003329483939e-06
103 -8.57190711941549385e-05
104 -7.34251186531842907e-06
105 -1.35505045930536377e-04
106 -3.21065775409854913e-04
107  3.93516662021402817e-04
108  9.21607498264563900e-05
109  8.07597968729672393e-04
110 -1.61836492519854425e-03
111 -7.28731574011149416e-04
112  6.25977558316616355e-04
113  8.85329343412565441e-05
114 -3.41396741801137926e-04
115 -3.94086017379825478e-04
116 -1.39743290530091040e-04
117  6.17380209024749659e-05
118 -2.93917542837859270e-05
119  2.96984284607610012e-03
120  1.93523761704867238e-03
121 -8.84952546325620207e-04
122  7.81122971484487670e-04
123  4.17440118052044094e-05
124 -2.38112805928665397e-04
125 -1.28739521232790411e-04
126 -1.07876389152653863e-04
127  1.63699924084805345e-04
128  1.38876930519939628e-04
129 -5.47220375417171263e-04
130 -3.71431439655071710e-04
131 -1.81261231729865153e-05
132  1.88009750129513405e-05
133 -5.37148209185469742e-06
134 -5.64607459775222733e-04
135  1.45602651185095043e-04
136 -1.08161059470125219e-04
137  1.59287556883137892e-04
138  2.94272989951354421e-03
139 -5.83265049652455020e-04
140  1.01260981975273098e-04
141 -8.66847640955518170e-04
142  3.32185617086925997e-05
143  1.08274782402598995e-04
144  1.21939904914648076e-05
145 -2.14565533330572430e-05
146  3.41509111691572657e-05
147 -6.28680552664028294e-03
148  2.80678543599962270e-03
149 -4.83093794569360276e-05
150  3.46301167455865557e-04
151  7.16420108246665376e-05
152 -5.32751219914052499e-04
153  6.18257155980034105e-04
154 -1.80003699891422362e-05
155 -1.90719346901217904e-04
156  4.56057621746322939e-04
 Sym= A
 Ene= -1.03820622378517378e+01
 Spin= Alpha
 Occup=  1.00000000000000000e+00
  1 -8.62049513046491724e-04
  2 -6.52075991553618733e-04
  3 -1.92654863769384010e-04
  4 -9.01079017002025246e-05
  5  6.62432787104752052e-04
  6 -6.32798387117215083e-05
  7  1.90571586477365941e-04
  8  2.74113310543028775e-04
  9 -2.44976920057765873e-03
 10  8.14457542813594622e-03
 11 -4.65299361129319685e-03
 12 -7.38399043584263629e-04
 13  4.02696898086236845e-03
 14 -4.68069393240153867e-04
 15  1.26853838043754718e-03
 16  2.66978212123669884e-04
 17  4.30238501843516012e-05
 18 -1.15810314024411635e-04
 19  1.90002147862488625e-02
 20 -3.83471606600491351e-03
 21 -8.61703628176131785e-04
 22 -1.45592950978230807e-03
 23 -1.78864456392280753e-04
 24  3.40901455316761786e-04
 25  1.44126647570599854e-03
 26 -1.86599639465741515e-05
 27  9.71682655086358312e-05
 28  1.09825737282729836e-04
 29 -2.17371163677905515e-05
 30  1.11957861964327157e-04
 31 -5.44370454224393416e-04
 32 -8.02473637508057357e-04
 33  1.35208792774803863e-04
 34 -1.20929409898932637e-03
 35 -4.54597209735380092e-03
 36  3.04227507929399248e-03
 37  2.16442823952772397e-04
 38 -2.28898467467543746e-03
 39 -3.64070158311415601e-04
 40 -4.94269903053963836e-04
 41 -2.79488646586675557e-05
 42  1.06754165472002828e-04
 43  1.07257986824197397e-04
 44 -2.37419013059300618e-02
 45  1.49638759549610930e-03
 46  1.05398062681918850e-03
 47 -3.50472358104642317e-03
 48 -4.18520357393005420e-05
 49 -6.56486627606533979e-04
 50 -1.37740547560277792e-04
 51  5.36558022968464826e-04
 52  5.27961943733956511e-04
 53  4.80791390230505636e-05
 54 -2.40033788580472600e-05
 55  2.27913886383458153e-05
 56 -6.37759149658872647e-04
 57 -3.41185963168708344e-04
 58  7.78128778680779200e-05
 59 -2.24041830562960332e-04
 60  5.08592840843000160e-03
 61  2.07871544086218277e-03
 62  2.99710990053416056e-04
 63  2.67357402564971647e-03
 64  1.02327015850753054e-04
 65 -1.24805016603240171e-05
 66  6.15902899581189640e-06
 67  1.28075251634779778e-05
 68 -3.82850116289773325e-05
 69  1.14978588485066310e-02
 70  3.58820299732304357e-03
 71 -2.44442642523734022e-04
 72  1.68519143462306947e-03
 73 -1.07057522877619730e-04
 74  4.29203677638889409e-04
 75  1.07530201537152023e-03
 76 -2.02981914644978761e-04
 77 -1.05457385751000563e-04
 78  3.39915528651430100e-05
 79  3.06112208715456655e-06
 80  9.35297887951223238e-05
 81 -2.63727659224463650e-04
 82 -3.42503962445710826e-04
 83 -6.66825461751231790e-06
 84 -4.28973950990312947e-04
 85 -3.44334021371920382e-03
 86 -1.27041968076930167e-03
 87 -2.29527946664148858e-04
 88  2.18983627639229449e-04
 89 -1.96554560952349989e-04
 90 -1.41092372041019896e-04
 91  6.47884736902199835e-08
 92  1.16145047136135253e-04
 93 -1.50256858488379349e-04
 94 -1.19514321852729876e-02
 95 -1.97827800203706668e-03
 96  2.79514069399652875e-04
 97 -3.59070497738692108e-03
 98 -6.38109492576451455e-05
 99 -8.89148978808217317e-05
100  3.23375778581907970e-04
101  2.36422997384378103e-03
102  2.03653323251873266e-03
103  4.80901376287322369e-04
104 -1.43559331261917933e-04
105  6.24261608397096488e-05
106 -3.50541245496551964e-04
107 -1.10131034457162870e-03
108  3.30808462846837715e-04
109 -2.96017615046281627e-04
110  7.38804035840683482e-03
111  2.90734462027612134e-03
112 -1.31563157181026477e-03
113 -3.98496679667435533e-04
114  4.81900519745857034e-04
115  1.15917498730218644e-04
116  7.17958002682629658e-05
117 -6.67405415519517920e-04
118  4.20635009660131351e-04
119  1.59859154311738395e-02
120 -5.32048970371600482e-04
121 -2.08362237385354733e-03
122 -2.59162916985168591e-03
123 -1.58709823531825702e-04
124 -4.70920699366171960e-04
125  5.62872447161563380e-04
126 -7.23155350048310065e-05
127 -6.33290009950897748e-04
128 -4.59198821319976240e-04
129  5.62906663839234378e-01
130  4.63526892250516076e-01
131  2.03354501912307958e-04
132 -6.60019545961164350e-05
133 -1.88711510768955115e-04
134  1.82679626465521612e-02
135 -3.05274336732732645e-04
136  4.66545117205539287e-04
137 -1.10263421350500221e-03
138 -2.50046823742241207e-02
139  1.11070429848433806e-03
140 -8.73177101315390151e-04
141  3.04790686536538001e-03
142  2.05809871867002173e-04
143 -4.61779249928103601e-04
144 -9.58318226208452464e-05
145  3.21718037070623452e-04
146 -2.97952915878646242e-05
147 -1.33627184673217048e-02
148  1.07515653708209718e-03
149  6.48084182826653933e-04
150  1.19663220194055910e-03
151 -1.26672559829532676e-04
152  1.20157895026916373e-03
153  3.87830117482158626e-03
154 -1.07811516608756372e-04
155  9.70848012658896350e-04
156  3.71064634639081811e-03
 Sym= A
 Ene= -1.03706645125667389e+01
 Spin= Alpha
 Occup=  1.00000000000000000e+00
  1  2.87738062702786033e-05
  2  1.14378568047492340e-04
  3 -1.81295684199759835e-05
  4  2.60743225480855025e-06
  5 -3.60278578704999850e-05
  6 -5.36358940064690388e-04
  7  4.25098408921055330e-04
  8 -2.60372851395374442e-05
  9  5.05104642716557419e-04
 10  3.30732168139105263e-04
 11 -1.10081151379975536e-04
 12  2.15031054553004903e-04
 13 -1.04461577141043725e-04
 14 -1.01548543262972908e-04
 15 -2.74172259554884953e-04
 16  5.07453153814117511e-05
 17  2.64919328072373781e-05
 18  1.36388404313278776e-05
 19  7.87221296183487559e-03
 20 -1.31794493735845251e-03
 21  3.73984295076957283e-04
 22 -5.42142704070394839e-03
 23 -5.49672763717908811e-05
 24 -6.56271574854726204e-05
 25  2.80932775174393818e-04
 26 -1.42748401963456274e-05
 27  9.00936392694572276e-05
 28 -2.18662522075890739e-04
 29 -2.16201289490666409e-05
 30 -8.26045572758409626e-05
 31 -4.98585677154446622e-04
 32  1.67937969412495407e-03
 33  1.41153218503584728e-04
 34  4.11863111155505099e-04
 35 -3.76964627764021407e-04
 36 -5.84509401522590333e-04
 37 -1.57635329071894209e-04
 38 -2.48475189326346981e-04
 39  7.32022376783673305e-04
 40  2.31349712554521271e-04
 41  3.04842979852733937e-05
 42 -4.23555930963153728e-04
 43 -1.05280234772563757e-04
 44 -1.51018462912495301e-02
 45 -2.52084014040097502e-03
 46  1.62236902050227384e-04
 47 -3.28735271452582989e-03
 48 -1.19856881816735598e-04
 49 -4.53162624960226848e-05
 50  7.62949674307754127e-04
 51 -1.45627706374878169e-02
 52 -1.14780469008253019e-02
 53 -7.09537921758641847e-04
 54  1.76815268375594033e-05
 55  8.25765722224184652e-04
 56 -2.42278173103824311e-03
 57  4.16092279887844783e-03
 58 -1.22090276561233243e-04
 59 -5.06330037029596551e-03
 60  9.46677635970802323e-04
 61 -2.63131944848503743e-04
 62  4.03326562592041821e-04
 63  3.12589230487786028e-03
 64 -2.01447400214071906e-03
 65  2.48181099944553294e-03
 66 -1.30469461738835183e-04
 67 -2.96797327602797711e-04
 68  2.09544364584587494e-04
 69 -7.64488537929600143e-03
 70  1.13471930445789094e-03
 71 -6.03347940840638750e-04
 72 -1.25304118960960242e-04
 73 -3.35730951872961270e-04
 74  2.81405452187372812e-04
 75  1.75947068775655024e-03
 76  5.62606125852571082e-01
 77  4.63123104270464048e-01
 78 -3.25391142528168753e-04
 79 -1.42589032878082242e-05
 80  4.11524471716733138e-04
 81  1.94090303410406513e-02
 82  3.50292090857258053e-03
 83 -8.33219526886702697e-06
 84 -3.83712808923551089e-03
 85 -1.31457319575031453e-02
 86 -3.30869923628959858e-03
 87 -4.74912479890404889e-04
 88  2.50210833824929355e-04
 89  1.92173376539053102e-03