[Molden Format]
[Atoms] (AU)
C    1    6         2.688203947216       0.126267316038      -0.211284584910
H    2    1         4.728095907479       0.359456870713      -0.218011119477
C    3    6         1.369782617967       0.204435981782      -2.374855666231
H    4    1         2.318345438850       0.530982748944      -4.165937681460
C    5    6        -1.369782617967      -0.204435981782      -2.374855666231
H    6    1        -2.318345438850      -0.530982748944      -4.165937681460
C    7    6        -2.688203947216      -0.126267316038      -0.211284584910
H    8    1        -4.728095907290      -0.359456870902      -0.218011119477
C    9    6        -1.377448045575       0.458746757807       2.255586404767
H   10    1        -1.428727068278       2.518961490447       2.552818698465
H   11    1        -2.401900037590      -0.368832778254       3.849461186775
C   12    6         1.377448045575      -0.458746757807       2.255586404767
H   13    1         1.428727068278      -2.518961490069       2.552818698465
H   14    1         2.401900037401       0.368832778065       3.849461186397
[GTO]
  1 0
 s    6  1.00
     4563.2400000000         0.0019666500
      682.0240000000         0.0152306000
      154.9730000000         0.0761269000
       44.4553000000         0.2608010000
       13.0290000000         0.6164620000
        1.8277300000         0.2210060000
 s    3  1.00
       20.9642000000         0.1146600000
        4.8033100000         0.9199990000
        1.4593300000        -0.0030306800
 p    3  1.00
       20.9642000000         0.0402487000
        4.8033100000         0.2375940000
        1.4593300000         0.8158540000
 s    1  1.00
        0.4834560000         1.0000000000
 p    1  1.00
        0.4834560000         1.0000000000
 s    1  1.00
        0.1455850000         1.0000000000
 p    1  1.00
        0.1455850000         1.0000000000
 d    1  1.00
        0.6260000000         1.0000000000
 s    1  1.00
        0.0438000000         1.0000000000
 p    1  1.00
        0.0438000000         1.0000000000

  2 0
 s    3  1.00
       33.8650000000         0.0254938000
        5.0947900000         0.1903730000
        1.1587900000         0.8521610000
 s    1  1.00
        0.3258400000         1.0000000000
 s    1  1.00
        0.1027410000         1.0000000000

  3 0
 s    6  1.00
     4563.2400000000         0.0019666500
      682.0240000000         0.0152306000
      154.9730000000         0.0761269000
       44.4553000000         0.2608010000
       13.0290000000         0.6164620000
        1.8277300000         0.2210060000
 s    3  1.00
       20.9642000000         0.1146600000
        4.8033100000         0.9199990000
        1.4593300000        -0.0030306800
 p    3  1.00
       20.9642000000         0.0402487000
        4.8033100000         0.2375940000
        1.4593300000         0.8158540000
 s    1  1.00
        0.4834560000         1.0000000000
 p    1  1.00
        0.4834560000         1.0000000000
 s    1  1.00
        0.1455850000         1.0000000000
 p    1  1.00
        0.1455850000         1.0000000000
 d    1  1.00
        0.6260000000         1.0000000000
 s    1  1.00
        0.0438000000         1.0000000000
 p    1  1.00
        0.0438000000         1.0000000000

  4 0
 s    3  1.00
       33.8650000000         0.0254938000
        5.0947900000         0.1903730000
        1.1587900000         0.8521610000
 s    1  1.00
        0.3258400000         1.0000000000
 s    1  1.00
        0.1027410000         1.0000000000

  5 0
 s    6  1.00
     4563.2400000000         0.0019666500
      682.0240000000         0.0152306000
      154.9730000000         0.0761269000
       44.4553000000         0.2608010000
       13.0290000000         0.6164620000
        1.8277300000         0.2210060000
 s    3  1.00
       20.9642000000         0.1146600000
        4.8033100000         0.9199990000
        1.4593300000        -0.0030306800
 p    3  1.00
       20.9642000000         0.0402487000
        4.8033100000         0.2375940000
        1.4593300000         0.8158540000
 s    1  1.00
        0.4834560000         1.0000000000
 p    1  1.00
        0.4834560000         1.0000000000
 s    1  1.00
        0.1455850000         1.0000000000
 p    1  1.00
        0.1455850000         1.0000000000
 d    1  1.00
        0.6260000000         1.0000000000
 s    1  1.00
        0.0438000000         1.0000000000
 p    1  1.00
        0.0438000000         1.0000000000

  6 0
 s    3  1.00
       33.8650000000         0.0254938000
        5.0947900000         0.1903730000
        1.1587900000         0.8521610000
 s    1  1.00
        0.3258400000         1.0000000000
 s    1  1.00
        0.1027410000         1.0000000000

  7 0
 s    6  1.00
     4563.2400000000         0.0019666500
      682.0240000000         0.0152306000
      154.9730000000         0.0761269000
       44.4553000000         0.2608010000
       13.0290000000         0.6164620000
        1.8277300000         0.2210060000
 s    3  1.00
       20.9642000000         0.1146600000
        4.8033100000         0.9199990000
        1.4593300000        -0.0030306800
 p    3  1.00
       20.9642000000         0.0402487000
        4.8033100000         0.2375940000
        1.4593300000         0.8158540000
 s    1  1.00
        0.4834560000         1.0000000000
 p    1  1.00
        0.4834560000         1.0000000000
 s    1  1.00
        0.1455850000         1.0000000000
 p    1  1.00
        0.1455850000         1.0000000000
 d    1  1.00
        0.6260000000         1.0000000000
 s    1  1.00
        0.0438000000         1.0000000000
 p    1  1.00
        0.0438000000         1.0000000000

  8 0
 s    3  1.00
       33.8650000000         0.0254938000
        5.0947900000         0.1903730000
        1.1587900000         0.8521610000
 s    1  1.00
        0.3258400000         1.0000000000
 s    1  1.00
        0.1027410000         1.0000000000

  9 0
 s    6  1.00
     4563.2400000000         0.0019666500
      682.0240000000         0.0152306000
      154.9730000000         0.0761269000
       44.4553000000         0.2608010000
       13.0290000000         0.6164620000
        1.8277300000         0.2210060000
 s    3  1.00
       20.9642000000         0.1146600000
        4.8033100000         0.9199990000
        1.4593300000        -0.0030306800
 p    3  1.00
       20.9642000000         0.0402487000
        4.8033100000         0.2375940000
        1.4593300000         0.8158540000
 s    1  1.00
        0.4834560000         1.0000000000
 p    1  1.00
        0.4834560000         1.0000000000
 s    1  1.00
        0.1455850000         1.0000000000
 p    1  1.00
        0.1455850000         1.0000000000
 d    1  1.00
        0.6260000000         1.0000000000
 s    1  1.00
        0.0438000000         1.0000000000
 p    1  1.00
        0.0438000000         1.0000000000

  10 0
 s    3  1.00
       33.8650000000         0.0254938000
        5.0947900000         0.1903730000
        1.1587900000         0.8521610000
 s    1  1.00
        0.3258400000         1.0000000000
 s    1  1.00
        0.1027410000         1.0000000000

  11 0
 s    3  1.00
       33.8650000000         0.0254938000
        5.0947900000         0.1903730000
        1.1587900000         0.8521610000
 s    1  1.00
        0.3258400000         1.0000000000
 s    1  1.00
        0.1027410000         1.0000000000

  12 0
 s    6  1.00
     4563.2400000000         0.0019666500
      682.0240000000         0.0152306000
      154.9730000000         0.0761269000
       44.4553000000         0.2608010000
       13.0290000000         0.6164620000
        1.8277300000         0.2210060000
 s    3  1.00
       20.9642000000         0.1146600000
        4.8033100000         0.9199990000
        1.4593300000        -0.0030306800
 p    3  1.00
       20.9642000000         0.0402487000
        4.8033100000         0.2375940000
        1.4593300000         0.8158540000
 s    1  1.00
        0.4834560000         1.0000000000
 p    1  1.00
        0.4834560000         1.0000000000
 s    1  1.00
        0.1455850000         1.0000000000
 p    1  1.00
        0.1455850000         1.0000000000
 d    1  1.00
        0.6260000000         1.0000000000
 s    1  1.00
        0.0438000000         1.0000000000
 p    1  1.00
        0.0438000000         1.0000000000

  13 0
 s    3  1.00
       33.8650000000         0.0254938000
        5.0947900000         0.1903730000
        1.1587900000         0.8521610000
 s    1  1.00
        0.3258400000         1.0000000000
 s    1  1.00
        0.1027410000         1.0000000000

  14 0
 s    3  1.00
       33.8650000000         0.0254938000
        5.0947900000         0.1903730000
        1.1587900000         0.8521610000
 s    1  1.00
        0.3258400000         1.0000000000
 s    1  1.00
        0.1027410000         1.0000000000

[5D]
[9G]

[MO]
 Sym= A
 Ene= -1.25564911471690390e+01
 Spin= Alpha
 Occup=  1.00000000000000000e+00
  1 -5.12065515036293017e-05
  2  2.66015175888351931e-04
  3 -1.49443729860190946e-04
  4 -2.91946625792369381e-05
  5 -3.20670828784356903e-04
  6 -1.33309063528206772e-03
  7  1.76589401363179085e-03
  8  9.98045981067829409e-05
  9  2.63445774226640870e-03
 10 -9.68795731567954378e-03
 11  4.41495104883117030e-03
 12  5.40919485368206512e-04
 13 -1.47282670780875540e-03
 14 -4.98400630329637632e-04
 15 -1.37723645178247059e-03
 16 -1.15716233698727811e-04
 17  7.41077535985192135e-05
 18  1.40846606002350188e-04
 19  1.56720852620556225e-02
 20 -3.56523586331384222e-03
 21  1.15831526794851281e-03
 22 -7.86550575070426097e-03
 23 -1.93679075508863255e-04
 24 -6.21787883001231542e-04
 25  8.63013048077389115e-04
 26 -5.96082183675035796e-05
 27  3.87238918686442710e-04
 28 -1.83096375947587944e-03
 29 -2.16664031958379476e-04
 30 -2.76480989805628365e-04
 31 -4.18302670541168225e-04
 32  7.04079366787595078e-03
 33  7.35692156579068317e-04
 34  1.87875385547529449e-03
 35  1.37482045409424262e-02
 36 -8.48220115972177398e-03
 37 -1.55409219054653100e-03
 38  7.74299575292531576e-03
 39  2.83513912615485043e-03
 40  6.87290323179442857e-04
 41 -2.62170245387887736e-04
 42 -3.05044104814553886e-03
 43 -1.14290595729203692e-03
 44 -5.67112317655409301e-02
 45  4.46238854630253128e-03
 46 -1.41786918175899814e-04
 47 -6.38919569549444878e-03
 48 -5.83741586559400152e-04
 49  1.05384486319455746e-03
 50  4.95073283287579807e-03
 51 -6.22470191381947369e-01
 52 -4.20661902271227406e-01
 53 -2.53446211957712162e-06
 54 -2.14939535788329024e-04
 55 -1.86049191319176042e-03
 56  4.93376805000896174e-02
 57 -1.35455629247929082e-03
 58  1.13373310635376829e-03
 59  1.11332758915138001e-02
 60 -4.46901015562261791e-02
 61 -6.48158076023339601e-03
 62 -1.87841725003991028e-03
 63 -1.17117778140426055e-02
 64  1.92527664565727446e-03
 65 -4.79786626933208574e-03
 66  1.50610077694872098e-04
 67  3.01423606250703080e-03
 68  3.37717107078414893e-04
 69  8.00451418258939368e-02
 70  7.13401836736188028e-03
 71  2.72153448229506528e-03
 72  1.72247127383643069e-02
 73  3.63693612845357689e-04
 74 -2.44013454928383418e-03
 75  2.60660258898041128e-03
 76 -2.85074158068194942e-04
 77  1.33961370340754979e-03
 78  1.00717702814146479e-03
 79 -1.29352119958435361e-04
 80 -2.11838919584196291e-03
 81 -4.90503684706547916e-03
 82 -6.59906725622660343e-03
 83  6.97192939566980115e-04
 84  1.29998862139937294e-02
 85  6.99694342717577245e-03
 86  8.58736185026159719e-03
 87  2.66930824128888309e-04
 88 -3.67916325067311079e-03
 89 -4.24648491328735375e-03
 90  6.47674965879715091e-03
 91 -1.42035021184870581e-04
 92 -1.44770373371757633e-03
 93  4.20968470380495648e-04
 94 -4.79738305009584295e-02
 95 -5.82283468571179880e-03
 96  6.12364260081035275e-04
 97  5.42868230762625931e-03
 98 -8.80521338081312289e-04
 99  5.34747944014490623e-04
100  5.07365563030332499e-03
101 -4.30740995120870146e-05
102  2.60657887407818962e-04
103 -2.20707927169514232e-04
104 -3.13410077014565281e-05
105 -3.72383838254800644e-04
106 -9.08491847565536946e-04
107  1.02610291886721700e-03
108  3.27868839500531034e-04
109  2.18995568435093133e-03
110 -5.45182997380619892e-03
111 -2.01666152274634219e-03
112  2.09698116220632339e-03
113  4.86638211997985910e-04
114 -8.06232314334483506e-04
115 -1.07654157367719481e-03
116 -4.62180804557727918e-04
117  1.92420529491125672e-04
118 -4.28180294249325586e-05
119  2.50910345604528039e-02
120  4.18325311075547473e-03
121 -3.63786839992263824e-03
122 -1.50581751742442471e-03
123  1.26962043491296144e-04
124 -5.91665778116435333e-04
125 -1.27215406334057319e-03
126 -3.54444934215544750e-04
127  5.95007868802137590e-04
128 -4.89619524632366998e-05
129 -3.40934355744553836e-05
130  2.17146747497966883e-04
131 -2.02124466192624799e-05
132  6.00477643288212050e-05
133 -4.58386405565739397e-05
134 -1.65065081821583887e-03
135  2.76457165819035504e-04
136 -3.34136257590530897e-04
137  5.29898998904417082e-04
138  9.02355123267040149e-03
139 -1.46773916009656168e-03
140  3.89057424490531645e-04
141 -2.60295502236932742e-03
142  5.80696199305654484e-05
143  2.86971799427875528e-04
144  3.87855361424129658e-05
145 -1.97085311983835062e-05
146  9.25108625757177012e-05
147 -1.58082428466913977e-02
148  8.55510900109002735e-03
149  4.08699714044180582e-06
150  4.90272146801683044e-04
151  2.19009573495744644e-04
152 -1.66274136144359957e-03
153  1.21203463665374390e-03
154 -5.45543431354665397e-05
155 -5.76710961307228399e-04
156  8.55696925573338433e-04
 Sym= A
 Ene= -1.04775881882226241e+01
 Spin= Alpha
 Occup=  1.00000000000000000e+00
  1  4.16471364884005881e-05
  2 -3.37730467999719009e-05
  3  1.95147908181907851e-05
  4  1.90597030820810998e-06
  5  3.04229738672695633e-05
  6  3.32124987865520499e-04
  7 -3.24230741360522943e-04
  8  2.68623835795009369e-07
  9 -3.70774177273931467e-04
 10  2.16162255574980499e-04
 11 -3.87082369087036885e-04
 12 -2.52699906787006324e-04
 13 -1.25610104772833684e-05
 14  9.17746650627611484e-05
 15  2.04254040312809798e-04
 16 -4.93824687090783676e-05
 17 -1.97194666434822261e-05
 18 -2.74152329639584448e-06
 19 -6.28299285222424456e-03
 20  9.64491656620661210e-04
 21 -6.93694640521702100e-04
 22  6.26009500558835121e-03
 23  3.15245908851564965e-05
 24  1.55060815567880912e-04
 25 -1.22966515236531948e-04
 26  5.67369941929478570e-05
 27 -3.06176537035943091e-05
 28  1.96481852360119692e-04
 29  2.70805058897049083e-05
 30  7.60301127156090247e-05
 31  3.26286330407335890e-04
 32 -1.24771718243771659e-03
 33 -1.50821296627651083e-04
 34 -3.57175991194851235e-04
 35  1.11486132244222476e-05
 36  3.67206570538669824e-04
 37  1.77341178653038484e-04
 38  1.41687962615745023e-04
 39 -5.77710779928152711e-04
 40 -1.55514431736388545e-04
 41 -2.75679235770751617e-05
 42  3.23316427770537829e-04
 43  1.10386051044654489e-04
 44  1.46826792193936947e-02
 45  2.98337026502883129e-03
 46  5.07403442320296781e-06
 47  3.44309976326485955e-03
 48  7.60531301266808321e-05
 49  1.03298471813396118e-04
 50 -6.96406289804011301e-04
 51  2.34189993813209858e-04
 52 -2.33686999936365031e-04
 53  5.99249171381308282e-04
 54 -1.64396142501099905e-05
 55 -7.72511109890670488e-04
 56  1.30830876035084695e-03
 57 -2.97939763496303002e-03
 58  7.66904778404846820e-05
 59  3.86094913230597327e-03
 60 -1.00922834703378152e-03
 61  6.17775339984264388e-05
 62 -4.70243993470820980e-04
 63 -2.78862852184947208e-03
 64  1.63473812956471437e-03
 65 -1.94141848792289099e-03
 66  9.02239940031437991e-05
 67  2.61705115160940072e-04
 68 -1.76040767120948932e-04
 69  9.12207382288929280e-03
 70 -9.75819687613993579e-04
 71  6.88337912941322494e-04
 72  3.43325887428279255e-04
 73  2.70266030534656201e-04
 74 -2.39245099346694652e-04
 75 -1.57163073852537743e-03
 76 -5.63023657128705501e-01
 77 -4.63457903916664082e-01
 78  5.29855975682665589e-05
 79  1.46328034656702623e-04
 80  3.59581038160383475e-04
 81 -1.78931782196780492e-02
 82 -2.57914706386697112e-03
 83 -1.70056750041164728e-04
 84  2.27333461748013095e-03
 85  1.31979765701659146e-02
 86  3.08365578952469067e-03
 87  6.80089490571507936e-04
 88  1.02648659126087867e-04
 89 -1.58365990920512618e-03
 90  1.25554711695709253e-03
 91 -2.50353830201318803e-04
 92 -6.68634010473549418e-04
 93 -4.17956044972968798e-05
 94 -1.62472388339449207e-02
 95 -4.49226410607350083e-03
 96 -1.61258595345085075e-03
 97  1.11448708652607423e-03
 98 -2.57237384939953343e-04
 99  8.45478310238206203e-04
100 -1.58447855395735964e-03
101 -6.99921735015001279e-04
102 -6.57525324934895455e-04
103  2.52534142472354232e-04
104  1.00020658869820906e-04
105  4.12813200505804010e-04
106 -2.90101974939770625e-05
107 -6.36277240675630663e-04
108 -2.20008053746688359e-04
109 -9.67821337643284645e-04
110 -2.10430849441914022e-03
111  3.45932140167253476e-04
112 -3.56289843307423001e-04
113  1.54175623094755820e-03
114  5.99284890079272822e-04
115  6.55679662928576341e-04
116  3.00821186248208857e-04
117  2.43656854851404941e-04
118  2.31309218630085651e-04
119 -2.69327472685321851e-03
120 -2.13423075563144585e-03
121  1.92626092392258596e-03
122 -2.05629951113179459e-03
123  1.70100658927293304e-04
124  3.20064814713075436e-04
125  1.03124767683266088e-04
126  1.50847733268287900e-04
127 -1.45774704733469217e-04
128  3.42120862839252315e-04
129  3.11168491621223711e-05
130 -3.58790555882529337e-05
131  5.94918783064669340e-05
132  6.06040504125804393e-06
133 -1.44941958552980023e-05
134  3.92939226169859723e-04
135 -3.42183165541465870e-04
136  2.02158322108610609e-05
137 -3.86120451368936012e-05
138 -6.40018858425320963e-04
139  6.49316775802073775e-04
140  8.45501140788516500e-04
141  3.69656271453867901e-04
142 -1.06595897668338037e-04
143 -9.98142741542024629e-05
144 -3.73650253538066113e-05
145  8.08583068399424423e-05
146 -5.50968161788747724e-05
147  9.23175979175887762e-04
148 -4.68140385291938854e-03
149 -5.15739728716468762e-04
150  1.80722387047477706e-03
151 -9.67377692942176354e-05
152  6.48376801828037764e-04
153  1.03255964545704741e-04
154  8.17875223266040284e-05
155 -1.84081288796778431e-04
156 -4.27760515437799170e-04
 Sym= A
 Ene= -1.04011039671297976e+01
 Spin= Alpha
 Occup=  1.00000000000000000e+00
  1 -8.71333876599250656e-03
  2 -7.64410319229291008e-03
  3  3.93688732345284949e-04
  4 -5.06581041686672784e-05
  5  8.19934413637653345e-04
  6  1.29223010655054259e-03
  7 -2.22534194772854412e-03
  8  2.51159983532222501e-04
  9 -4.47542863192815221e-03
 10 -1.75339115287659591e-03
 11  2.61270254330986992e-03
 12  1.78190137859985133e-05
 13  1.34708282989435039e-03
 14  1.44089219538102433e-03
 15  2.15092276495741077e-03
 16 -5.85073502008966976e-05
 17  5.04493757795925033e-04
 18 -1.32872144785175193e-04
 19  1.62981031407864740e-02
 20 -1.75774398245960865e-03
 21  3.75205014754710457e-04
 22 -2.19817004983060942e-03
 23  2.83087961419209010e-04
 24 -1.34176649672174765e-04
 25 -1.69890743931027342e-03
 26 -5.62876744068188772e-01
 27 -4.63299457095394940e-01
 28  1.17753185931258452e-03
 29  9.27137161222674612e-05
 30  5.46263094800197705e-04
 31 -1.85472639359279198e-02
 32 -1.58927996510569380e-03
 33  2.41455278092427543e-04
 34 -3.86332006361789562e-03
 35  1.48346664835279675e-02
 36 -1.63292092002202791e-03
 37 -5.23895816721208158e-04
 38  3.78538216108943639e-03
 39 -1.03882532636933580e-03
 40 -1.74718567933958378e-03
 41  1.05787764549729836e-04
 42 -1.01661035685877412e-03
 43 -9.36969597173457203e-05
 44 -2.65927910609641167e-02
 45  1.72359498380309601e-03
 46  8.17444319766056043e-04
 47 -6.54349993122190290e-03
 48 -2.99457911346499232e-04
 49  1.00294476396132494e-03
 50 -1.32982210401530747e-03
 51  7.34797515650376543e-05
 52 -6.72102192357789470e-06
 53 -6.25095752540361831e-04
 54 -7.61353710098712239e-05
 55  7.74826127531635315e-05
 56 -8.37330949439624069e-05
 57  1.74438850462899477e-03
 58  1.68552889369558557e-04
 59 -5.15735441424176313e-04
 60 -4.72439095103629070e-03
 61 -2.64490949523665201e-03
 62 -5.20853367535295975e-04
 63 -2.86968908682479424e-03
 64 -7.25479348377790060e-04
 65  1.61302763544634686e-04
 66 -9.10539624456237781e-05
 67  7.95828088374562711e-04
 68  3.10238200275109817e-04
 69  2.06463112832330382e-02
 70  5.54900629747613096e-04
 71 -1.30662360143337492e-04
 72  3.11897441152883407e-03
 73  1.72107102757634308e-04
 74 -4.08241476301649919e-04
 75 -1.66089960921659901e-03
 76 -3.96952740335154486e-05
 77 -1.10504573926365781e-04
 78 -4.77121795621870186e-05
 79 -1.41993608446690279e-05
 80  8.97488677307992918e-05
 81  3.09497948254099694e-04
 82  5.12333944391156005e-04
 83  5.18070733613285617e-05
 84 -7.21471560067119314e-04
 85  3.61812924295824324e-03
 86  1.76160517967768643e-03
 87  1.99638477709530464e-04
 88  3.63021361276721043e-04
 89  1.39687315864424452e-04
 90 -3.77950143817037867e-04
 91 -3.24517886072444458e-05
 92 -1.69197589385956930e-05
 93 -2.95088365526871139e-05
 94 -7.58853334670990184e-03
 95 -1.40415214299366453e-03
 96  5.17402889997080838e-04
 97  3.54521402548670919e-03
 98  4.59371736120657949e-05
 99  2.39859661917325701e-04
100 -1.55572797598418959e-04
101  1.95252743961923540e-04
102  8.77362317174055188e-05
103 -1.46591898248273976e-05
104  1.77803061260231708e-05
105  4.62201459113133845e-06
106  5.49112742080362800e-04
107  1.35278022892229333e-04
108 -1.01632667653903753e-04
109 -1.23620415468447283e-04
110 -3.14464529375225229e-03
111 -5.56920077336245292e-04
112  1.12587502676729897e-04
113  8.96794366715881639e-04
114 -4.03734886957100939e-05
115  7.99340445270681601e-05
116  5.59236234036923119e-06
117  1.48485600685310685e-05
118 -3.33548266732060171e-05
119  5.33864370738296092e-03
120  3.25289831933747242e-03
121  2.17801344609209926e-05
122 -5.46880278379529737e-05
123 -7.49091909220875714e-05
124  5.75416123261859847e-04
125 -4.12879123924210414e-04
126  1.59765192784169216e-05
127  1.86214755393291189e-04
128 -2.91733042827320920e-04
129  1.02406719754615739e-04
130 -8.19346184446056619e-06
131 -7.96493691391380622e-05
132 -1.19977525758497140e-05
133  1.28325463347681772e-04
134  2.95252496478465461e-04
135  3.61342859523320367e-04
136  1.10416105962283755e-04
137 -7.35680003181641857e-04
138  1.65224491441025908e-03
139 -7.15296919656338201e-04
140  7.15102162702067868e-04
141 -7.15582507336377723e-05
142  2.85027326800577953e-04
143 -3.75635182458596061e-04
144 -1.59548224170581943e-04
145 -5.58285963974099951e-05
146  2.57623777970406388e-05
147 -8.20082251729336263e-03
148  1.62133846518953463e-03
149 -1.33115865893415923e-03
150  2.55949362528999278e-04
151 -3.44852108915231364e-05
152  2.11436200629347133e-04
153  4.18390102924227935e-04
154  1.18126959982820464e-04
155 -2.07328186086779020e-04
156  4.24812881784124909e-05
 Sym= A
 Ene= -1.03815459929565801e+01
 Spin= Alpha
 Occup=  1.00000000000000000e+00
  1  5.02823627599603587e-04
  2  3.47090976022502334e-04
  3  2.98018566936493918e-05
  4  9.62509871992677145e-06
  5 -8.77473246732485035e-05
  6  3.74142660490195140e-04
  7 -3.20298345333992253e-04
  8 -3.18453598623380936e-05
  9  4.15614860041380095e-04
 10  1.91347261378415311e-03
 11 -4.05473827650561095e-04
 12 -1.32696261704790236e-04
 13 -4.55441661684082694e-04
 14  1.72454276552202389e-04
 15 -1.27115710912329918e-04
 16 -3.08440418741719010e-06
 17 -1.39006484653840366e-04
 18  1.62673366968505150e-04
 19  1.20443152537395761e-02
 20 -1.98371880330231332e-03
 21 -3.91101690557632203e-05
 22  4.35343558403070586e-03
 23  6.95635065999714432e-05
 24  1.42274426991849542e-05
 25 -5.21015208434348013e-04
 26 -1.89445096034742143e-04
 27 -2.34591355525261091e-04
 28  4.72254417695397823e-05
 29 -2.46213843375749258e-05
 30 -3.36286062463609574e-05
 31  5.70338357609136300e-04
 32 -2.72148491451420789e-04
 33  8.02173424785078144e-05
 34  2.66906860205359602e-04
 35 -3.62572504387231051e-03
 36  1.59842450240078697e-03
 37  2.53179075219394701e-04
 38 -2.00074725273679047e-03
 39 -6.80716205815614462e-05
 40 -3.96218346152494950e-06
 41  3.55670415396447947e-06
 42 -3.47252056975785284e-05
 43  3.53733226999712589e-05
 44 -1.03822505705335136e-02
 45  3.95271365686951631e-03
 46 -1.18058466497434957e-05
 47 -1.39519348135417665e-03
 48  9.01226073089672776e-05
 49 -3.41833129882088691e-04
 50 -7.78913174277921197e-04
 51  1.67570771102204228e-05
 52 -8.98865474971373614e-05
 53  9.57277443215458993e-05
 54 -2.13566617062807252e-05
 55 -1.01364993272636084e-04
 56  4.81289558608563627e-04
 57 -6.35608967588904253e-04
 58  1.28361780264775384e-04
 59  1.01044715137634574e-03
 60  3.35938804470739712e-03
 61  2.44023187491622211e-03
 62  2.54225525944395579e-04
 63  1.79003222572189451e-03
 64  3.07020229387663078e-04
 65 -4.11020289741662905e-04
 66 -4.13416278706911988e-05
 67 -8.40666280521581771e-05
 68 -1.12127581019355721e-04
 69  2.53404392363510839e-02
 70  1.27400162602744221e-03
 71  1.12727671334735056e-03
 72  3.73731236393316704e-03
 73  2.72561525131241098e-05
 74  6.05478246678730399e-04
 75 -1.32330567001006098e-04
 76  7.43114627060943657e-04
 77  5.56458927248500981e-04
 78 -1.94783433707370278e-04
 79 -1.07717416291058481e-04
 80 -6.04378484138020397e-04
 81  1.02206036047866600e-04
 82  2.43528952839669135e-04
 83  2.98545259034904036e-04
 84  2.06180057658195961e-03
 85 -7.17954901464721695e-03
 86 -4.05694863170729184e-03
 87 -9.08952326589616767e-04
 88 -3.49886097670892024e-03
 89  3.96893475169753530e-04
 90  1.12090829677961726e-03
 91  3.07515480026127909e-04
 92 -3.94935533079539887e-05
 93  1.25568177144507506e-04
 94 -1.88245048979982892e-02
 95 -3.77404459438563950e-03
 96 -8.36949900593220576e-04
 97  2.47336380174574587e-03
 98  1.77858389049960627e-04
 99 -2.36908051945199013e-04
100 -1.19311085053182817e-03
101 -5.62913147967857075e-01
102 -4.63546600453269286e-01
103  2.45004312860996388e-04
104 -5.72967572261080921e-05
105  2.09867759065584180e-04
106 -1.81200887048507259e-02
107 -4.76446518433703192e-04
108  5.28439359898933911e-04
109  9.38672708105294006e-04
110  2.38739957480216154e-02
111  1.23051435614658210e-03
112 -8.83756816395459997e-04
113 -2.63893660576404758e-03
114 -1.10484333788417853e-04
115 -3.82170037758538411e-04
116 -1.07981944017609656e-04
117 -3.24435169525272814e-04
118  5.86345486635567479e-05
119  1.13567706788581715e-02
120  1.39883600301570583e-03
121  8.07773225752943052e-04
122 -8.51902664636718359e-04
123  1.35003622188924536e-04
124 -1.19334036951927410e-03
125 -3.90293889046299837e-03
126  9.72612151328007367e-05
127 -8.67567945452277309e-04
128 -3.55204741160518875e-03
129 -2.52400501077316595e-03
130 -2.16944762908228336e-03
131  4.80839782885816500e-04
132 -1.61472060617465029e-04
133 -5.82307308780990868e-05
134  2.38302936923305130e-04
135 -1.10867505597204725e-03
136  3.69554514626952942e-04
137  2.69691084157989514e-04
138 -6.12658561742387368e-03
139  2.78828621196564128e-03
140 -1.32142268657453664e-03
141 -1.82880136405265512e-04
142 -4.80067799423529473e-04
143  1.05489709116166739e-04
144  6.20681392289180702e-05
145  6.56282685325888598e-04
146 -5.11327673593051893e-04
147 -1.71715115672391970e-02
148 -1.07582957632983839e-03
149 -2.36595150315632849e-03
150  2.81034704064611965e-03
151  1.74182886997236667e-04
152  3.22007170655926208e-04
153 -3.72278957958105828e-04
154  8.75915450683512352e-05
155  5.51607395563922511e-04
156  5.85782978695340560e-04
 Sym= A
 Ene= -1.03759715174561649e+01
 Spin= Alpha
 Occup=  1.00000000000000000e+00
  1  5.62780029876352783e-01
  2  4.63327131707977402e-01
  3  3.04999685686326320e-04
  4  3.34722177990278100e-05
  5  3.79032017889838603e-04
  6  1.86973055635334881e-02
  7 -2.94994118611929378e-03
  8 -8.42274893803974579e-05
  9 -3.12122426068170379e-03
 10 -1.36416362067162174e-02
 11  3.35950282395370853e-03
 12  6.65931866798513748e-04
 13  2.55706933956866944e-04
 14  1.66660466811896220e-03
 15  1.51538281212324627e-03
 16 -2.18348029439004339e-04
 17  6.34182172190727667e-04
 18 -1.90547161009884932e-06
 19  1.68756777296415472e-02
 20 -4.51636109092095912e-03
 21 -1.52963245481582688e-03
 22 -1.81661082962995954e-03
 23  2.92379594298459728e-04
 24 -8.46855379454424569e-04
 25  1.47923851643234233e-03
 26 -8.94474177026502622e-03
 27 -6.91405766754565540e-03
 28  6.22757130728316668e-04
 29 -1.33944580960469568e-05
 30  7.77123560315967242e-04
 31 -1.81184909596551844e-03
 32 -3.27773652083547876e-03
 33  8.37228240361240813e-05
 34 -4.27101823362164342e-03
 35  1.21064290218639227e-03
 36  2.31570201044861159e-04
 37 -4.67229659707261091e-04
 38  2.91752508475551838e-03
 39 -1.78156807505352229e-03
 40 -2.13983046194708313e-03
 41  9.67041179078559788e-05
 42 -3.03202063667762551e-04
 43  1.89199722011633805e-04
 44 -9.38944401824738130e-03
 45 -1.59917586138168385e-03
 46  6.23183581433999715e-04
 47 -5.24452259414998935e-04
 48 -2.90756511038262630e-04
 49  2.28294287998327423e-04
 50  1.59881217732685591e-03
 51 -1.13799322534290595e-05
 52  7.10594241454002781e-05
 53  2.02253454136366130e-04
 54  2.80650478387605338e-05
 55 -8.24033558154776849e-05
 56 -3.72840973917540894e-04
 57 -1.31271046706787908e-03
 58 -1.59153800328524548e-04
 59  3.79467737786364152e-04
 60  1.96954618319840992e-04
 61  4.72609206732248807e-04
 62  2.07737443766010965e-04
 63 -4.09061258297048754e-05
 64  6.10411924501495047e-04
 65 -1.66078442700644485e-04
 66 -2.93330779966084989e-05
 67 -3.29459093416012113e-04
 68 -1.13835921024373098e-04
 69 -1.60634424319198200e-02
 70  2.76815236008378946e-03
 71 -3.97247792192725901e-05
 72 -3.48114264004538996e-03
 73 -8.20392259765328065e-05
 74 -8.78891624343004649e-05
 75  7.75595042968843127e-04
 76  2.35995430717020108e-05
 77  9.04450606073798247e-05
 78  2.10988174909162593e-05
 79  1.17236436922022308e-06
 80 -3.36229247802313400e-05
 81 -3.43224587380003515e-04
 82 -3.43516991749957530e-04
 83  3.67457753095443795e-06
 84  4.02938191705899565e-04
 85 -3.48132808236230242e-04
 86 -4.75953582745778975e-04
 87 -2.81655678293354710e-04
 88  8.43111990051562392e-06
 89 -9.69364405138318683e-05