[Molden Format]
[Atoms] (AU)
C    1    6         2.688203947216       0.126267316038      -0.211284584910
H    2    1         4.728095907479       0.359456870713      -0.218011119477
C    3    6         1.369782617967       0.204435981782      -2.374855666231
H    4    1         2.318345438850       0.530982748944      -4.165937681460
C    5    6        -1.369782617967      -0.204435981782      -2.374855666231
H    6    1        -2.318345438850      -0.530982748944      -4.165937681460
C    7    6        -2.688203947216      -0.126267316038      -0.211284584910
H    8    1        -4.728095907290      -0.359456870902      -0.218011119477
C    9    6        -1.377448045575       0.458746757807       2.255586404767
H   10    1        -1.428727068278       2.518961490447       2.552818698465
H   11    1        -2.401900037590      -0.368832778254       3.849461186775
C   12    6         1.377448045575      -0.458746757807       2.255586404767
H   13    1         1.428727068278      -2.518961490069       2.552818698465
H   14    1         2.401900037401       0.368832778065       3.849461186397
[GTO]
  1 0
 s    6  1.00
     4563.2400000000         0.0019666500
      682.0240000000         0.0152306000
      154.9730000000         0.0761269000
       44.4553000000         0.2608010000
       13.0290000000         0.6164620000
        1.8277300000         0.2210060000
 s    3  1.00
       20.9642000000         0.1146600000
        4.8033100000         0.9199990000
        1.4593300000        -0.0030306800
 p    3  1.00
       20.9642000000         0.0402487000
        4.8033100000         0.2375940000
        1.4593300000         0.8158540000
 s    1  1.00
        0.4834560000         1.0000000000
 p    1  1.00
        0.4834560000         1.0000000000
 s    1  1.00
        0.1455850000         1.0000000000
 p    1  1.00
        0.1455850000         1.0000000000
 d    1  1.00
        0.6260000000         1.0000000000
 s    1  1.00
        0.0438000000         1.0000000000
 p    1  1.00
        0.0438000000         1.0000000000

  2 0
 s    3  1.00
       33.8650000000         0.0254938000
        5.0947900000         0.1903730000
        1.1587900000         0.8521610000
 s    1  1.00
        0.3258400000         1.0000000000
 s    1  1.00
        0.1027410000         1.0000000000

  3 0
 s    6  1.00
     4563.2400000000         0.0019666500
      682.0240000000         0.0152306000
      154.9730000000         0.0761269000
       44.4553000000         0.2608010000
       13.0290000000         0.6164620000
        1.8277300000         0.2210060000
 s    3  1.00
       20.9642000000         0.1146600000
        4.8033100000         0.9199990000
        1.4593300000        -0.0030306800
 p    3  1.00
       20.9642000000         0.0402487000
        4.8033100000         0.2375940000
        1.4593300000         0.8158540000
 s    1  1.00
        0.4834560000         1.0000000000
 p    1  1.00
        0.4834560000         1.0000000000
 s    1  1.00
        0.1455850000         1.0000000000
 p    1  1.00
        0.1455850000         1.0000000000
 d    1  1.00
        0.6260000000         1.0000000000
 s    1  1.00
        0.0438000000         1.0000000000
 p    1  1.00
        0.0438000000         1.0000000000

  4 0
 s    3  1.00
       33.8650000000         0.0254938000
        5.0947900000         0.1903730000
        1.1587900000         0.8521610000
 s    1  1.00
        0.3258400000         1.0000000000
 s    1  1.00
        0.1027410000         1.0000000000

  5 0
 s    6  1.00
     4563.2400000000         0.0019666500
      682.0240000000         0.0152306000
      154.9730000000         0.0761269000
       44.4553000000         0.2608010000
       13.0290000000         0.6164620000
        1.8277300000         0.2210060000
 s    3  1.00
       20.9642000000         0.1146600000
        4.8033100000         0.9199990000
        1.4593300000        -0.0030306800
 p    3  1.00
       20.9642000000         0.0402487000
        4.8033100000         0.2375940000
        1.4593300000         0.8158540000
 s    1  1.00
        0.4834560000         1.0000000000
 p    1  1.00
        0.4834560000         1.0000000000
 s    1  1.00
        0.1455850000         1.0000000000
 p    1  1.00
        0.1455850000         1.0000000000
 d    1  1.00
        0.6260000000         1.0000000000
 s    1  1.00
        0.0438000000         1.0000000000
 p    1  1.00
        0.0438000000         1.0000000000

  6 0
 s    3  1.00
       33.8650000000         0.0254938000
        5.0947900000         0.1903730000
        1.1587900000         0.8521610000
 s    1  1.00
        0.3258400000         1.0000000000
 s    1  1.00
        0.1027410000         1.0000000000

  7 0
 s    6  1.00
     4563.2400000000         0.0019666500
      682.0240000000         0.0152306000
      154.9730000000         0.0761269000
       44.4553000000         0.2608010000
       13.0290000000         0.6164620000
        1.8277300000         0.2210060000
 s    3  1.00
       20.9642000000         0.1146600000
        4.8033100000         0.9199990000
        1.4593300000        -0.0030306800
 p    3  1.00
       20.9642000000         0.0402487000
        4.8033100000         0.2375940000
        1.4593300000         0.8158540000
 s    1  1.00
        0.4834560000         1.0000000000
 p    1  1.00
        0.4834560000         1.0000000000
 s    1  1.00
        0.1455850000         1.0000000000
 p    1  1.00
        0.1455850000         1.0000000000
 d    1  1.00
        0.6260000000         1.0000000000
 s    1  1.00
        0.0438000000         1.0000000000
 p    1  1.00
        0.0438000000         1.0000000000

  8 0
 s    3  1.00
       33.8650000000         0.0254938000
        5.0947900000         0.1903730000
        1.1587900000         0.8521610000
 s    1  1.00
        0.3258400000         1.0000000000
 s    1  1.00
        0.1027410000         1.0000000000

  9 0
 s    6  1.00
     4563.2400000000         0.0019666500
      682.0240000000         0.0152306000
      154.9730000000         0.0761269000
       44.4553000000         0.2608010000
       13.0290000000         0.6164620000
        1.8277300000         0.2210060000
 s    3  1.00
       20.9642000000         0.1146600000
        4.8033100000         0.9199990000
        1.4593300000        -0.0030306800
 p    3  1.00
       20.9642000000         0.0402487000
        4.8033100000         0.2375940000
        1.4593300000         0.8158540000
 s    1  1.00
        0.4834560000         1.0000000000
 p    1  1.00
        0.4834560000         1.0000000000
 s    1  1.00
        0.1455850000         1.0000000000
 p    1  1.00
        0.1455850000         1.0000000000
 d    1  1.00
        0.6260000000         1.0000000000
 s    1  1.00
        0.0438000000         1.0000000000
 p    1  1.00
        0.0438000000         1.0000000000

  10 0
 s    3  1.00
       33.8650000000         0.0254938000
        5.0947900000         0.1903730000
        1.1587900000         0.8521610000
 s    1  1.00
        0.3258400000         1.0000000000
 s    1  1.00
        0.1027410000         1.0000000000

  11 0
 s    3  1.00
       33.8650000000         0.0254938000
        5.0947900000         0.1903730000
        1.1587900000         0.8521610000
 s    1  1.00
        0.3258400000         1.0000000000
 s    1  1.00
        0.1027410000         1.0000000000

  12 0
 s    6  1.00
     4563.2400000000         0.0019666500
      682.0240000000         0.0152306000
      154.9730000000         0.0761269000
       44.4553000000         0.2608010000
       13.0290000000         0.6164620000
        1.8277300000         0.2210060000
 s    3  1.00
       20.9642000000         0.1146600000
        4.8033100000         0.9199990000
        1.4593300000        -0.0030306800
 p    3  1.00
       20.9642000000         0.0402487000
        4.8033100000         0.2375940000
        1.4593300000         0.8158540000
 s    1  1.00
        0.4834560000         1.0000000000
 p    1  1.00
        0.4834560000         1.0000000000
 s    1  1.00
        0.1455850000         1.0000000000
 p    1  1.00
        0.1455850000         1.0000000000
 d    1  1.00
        0.6260000000         1.0000000000
 s    1  1.00
        0.0438000000         1.0000000000
 p    1  1.00
        0.0438000000         1.0000000000

  13 0
 s    3  1.00
       33.8650000000         0.0254938000
        5.0947900000         0.1903730000
        1.1587900000         0.8521610000
 s    1  1.00
        0.3258400000         1.0000000000
 s    1  1.00
        0.1027410000         1.0000000000

  14 0
 s    3  1.00
       33.8650000000         0.0254938000
        5.0947900000         0.1903730000
        1.1587900000         0.8521610000
 s    1  1.00
        0.3258400000         1.0000000000
 s    1  1.00
        0.1027410000         1.0000000000

[5D]
[9G]

[MO]
 Sym= A
 Ene= -1.25290200116341364e+01
 Spin= Alpha
 Occup=  1.00000000000000000e+00
  1 -3.80512287802205833e-05
  2  2.04864647008576079e-04
  3 -6.88161677682628506e-05
  4 -5.00578414984627696e-06
  5 -1.08182022792797491e-04
  6 -1.10497863737789542e-03
  7  1.07321062492050858e-03
  8 -8.02091575815399263e-06
  9  1.26522888712394892e-03
 10 -7.48695024025730583e-04
 11  1.20107674548413420e-03
 12  8.00475655593277618e-04
 13 -1.27162179499050768e-04
 14 -3.03575757304663308e-04
 15 -6.70040617247063034e-04
 16  1.60695618723639874e-04
 17  6.17132388044609438e-05
 18  1.77715222309500393e-05
 19  1.84436492164559984e-02
 20 -3.01730282659717257e-03
 21  1.94058483471121397e-03
 22 -1.77206450066751016e-02
 23 -1.10791424044676302e-04
 24 -4.72684278559815530e-04
 25  3.91811735433516542e-04
 26 -4.17472857407395534e-05
 27  2.35968509902301617e-04
 28 -6.43504670846402663e-04
 29 -8.82745854426231338e-05
 30 -2.43779820450811522e-04
 31 -1.12805502086953742e-03
 32  4.07453638841083748e-03
 33  4.90757614436371985e-04
 34  1.14984365050420736e-03
 35  4.58188546599992100e-04
 36 -1.58863763780764259e-03
 37 -6.08971674332734652e-04
 38 -2.81662230853844194e-04
 39  1.87648862255283626e-03
 40  5.42752077278165173e-04
 41  9.23546249351808512e-05
 42 -1.02472395927630418e-03
 43 -3.51517311839657804e-04
 44 -4.62192379501500869e-02
 45 -7.34051843419855545e-03
 46  1.46589679767286814e-04
 47 -9.60646146067533485e-03
 48 -2.57054029078082982e-04
 49 -2.73687158920504574e-04
 50  2.28004267562663008e-03
 51 -2.87601988522105548e-04
 52  1.34590003417698364e-03
 53 -1.62397357412696550e-03
 54  2.70194285968713047e-05
 55  1.96872333663848003e-03
 56 -5.09055948086611660e-03
 57  9.84283629732475226e-03
 58 -2.29291647634929067e-04
 59 -1.27113162232897099e-02
 60  4.03473414759190126e-03
 61 -9.72997135532626214e-04
 62  1.33253846959917582e-03
 63  8.89992954689081475e-03
 64 -5.34015688594653704e-03
 65  6.49574187535520865e-03
 66 -2.62391989499610344e-04
 67 -7.76087353325229275e-04
 68  6.13394905477282308e-04
 69 -2.79052936158084540e-02
 70  5.49224305801616127e-03
 71 -1.65763769948859812e-03
 72 -2.03929179460985224e-03
 73 -8.94942124034616262e-04
 74  6.30049591382663690e-04
 75  4.82986734343990136e-03
 76 -6.22379411498801494e-01
 77 -4.20655976475402704e-01
 78 -1.63168175685387390e-03
 79 -1.05495845727786338e-04
 80  1.24654835881783384e-03
 81  4.89764329233020046e-02
 82  9.09898076308832300e-03
 83  3.34537538080920246e-04
 84 -8.44683120036461565e-03
 85 -4.08720531683022803e-02
 86 -1.02125571304984807e-02
 87 -1.90609379386349012e-03
 88  9.88556234124947754e-04
 89  4.67058341148484171e-03
 90 -3.86419275760467541e-03
 91  6.04288942520454721e-04
 92  1.24244116068513246e-03
 93 -8.48033129706370173e-05
 94  5.15283431704610106e-02
 95  1.30176136837412883e-02
 96  4.27683373647774149e-03
 97 -5.64251079556102146e-03
 98  2.33996168608430698e-04
 99 -1.92626227875503878e-03
100  3.68549026075911485e-03
101 -4.61779961424854359e-05
102  3.29366778264454175e-04
103 -7.10928412507018121e-04
104 -2.75265440301269580e-04
105 -1.17239397680733541e-03
106 -3.39978651325119005e-04
107  2.05626985283867024e-03
108  7.21359734250842286e-04
109  3.25462943312979135e-03
110  6.85335822570159580e-03
111 -7.15144273521511127e-04
112  1.05501499615140134e-03
113 -4.78417708339222252e-03
114 -1.98434243997847167e-03
115 -2.12009398324202207e-03
116 -9.78334944574227837e-04
117 -6.83427245517468566e-04
118 -7.34799505846647836e-04
119  8.92430481818735390e-03
120  5.79317997916430245e-03
121 -5.57209878891739945e-03
122  5.89647207913356064e-03
123 -5.14446348734870409e-04
124 -1.06702139297114675e-03
125 -2.71349943647878364e-04
126 -4.80261264279644882e-04
127  3.51591615272136952e-04
128 -8.51071241054502758e-04
129 -2.98574646851192772e-05
130  1.84726210026735200e-04
131 -1.94090118133879042e-04
132 -9.87639850236227501e-06
133  4.64393095512230405e-05
134 -1.22270593802403815e-03
135  1.10583428707216073e-03
136 -1.02178376547132094e-04
137  1.25011049293808984e-04
138  1.70407733674435204e-03
139 -1.82434390102559222e-03
140 -2.62944743623135619e-03
141 -1.24426853412492309e-03
142  3.53152570898822760e-04
143  3.27912352766696307e-04
144  1.24150553037906278e-04
145 -2.52733525960812386e-04
146  1.99547413521423137e-04
147 -3.32506867143240797e-03
148  1.34216574184431465e-02
149  1.46237932788393830e-03
150 -5.07093617118444234e-03
151  3.00350023273432724e-04
152 -1.96811737234306970e-03
153 -2.59668808593199784e-04
154 -2.70377647539367697e-04
155  5.93089405077444013e-04
156  1.38680623589105601e-03
 Sym= A
 Ene= -1.04694984437794929e+01
 Spin= Alpha
 Occup=  1.00000000000000000e+00
  1 -4.45093662418316518e-05
  2  5.28604595455797364e-05
  3 -4.78016804712053149e-05
  4 -1.11020766295387551e-05
  5 -9.95619312463673367e-05
  6 -4.02146731122693672e-04
  7  5.51608803078791274e-04
  8  3.73318486674179288e-05
  9  8.12537843483751164e-04
 10 -3.01092230781962490e-03
 11  1.37957758621365585e-03
 12  1.67745414392472147e-04
 13 -4.87016489220676123e-04
 14 -1.55176216626025880e-04
 15 -4.30405662227551031e-04
 16 -4.04209857988516164e-05
 17  2.04409687015943227e-05
 18  4.14918819276065731e-05
 19  4.31109791429854904e-03
 20 -1.03110889859824636e-03
 21  4.09021936111752919e-04
 22 -2.78636983823096068e-03
 23 -5.75099063499177261e-05
 24 -1.97376658961190602e-04
 25  3.06173011144842235e-04
 26  9.88264881161191955e-04
 27  9.11402446198996546e-04
 28 -6.44815283709461494e-04
 29 -7.85776257907075328e-05
 30 -9.01871504938308531e-05
 31  1.29459663791979291e-05
 32  2.17034302340326970e-03
 33  2.26238657168797595e-04
 34  5.98606582294569775e-04
 35  4.32605126255176074e-03
 36 -2.75430197080248117e-03
 37 -4.99490138806144533e-04
 38  2.37844054638976883e-03
 39  8.54032206486878931e-04
 40  1.84809642672378313e-04
 41 -9.09297876227743159e-05
 42 -9.62505875778447702e-04
 43 -3.63133017423475498e-04
 44 -1.88894609869216870e-02
 45  1.46231831357487223e-03
 46 -5.01080982085106414e-05
 47 -1.97641435189308424e-03
 48 -1.80353356162042715e-04
 49  3.26627068350965799e-04
 50  1.58958633317483520e-03
 51  5.63018547493657540e-01
 52  4.63412774465438326e-01
 53 -3.63560409667027646e-04
 54 -7.76918566024191768e-05
 55  9.86246303635422852e-05
 56  1.80548982361899701e-02
 57 -2.32965510286315877e-04
 58  3.63120094284533610e-04
 59  3.11566863380534180e-03
 60 -1.44250320160237838e-02
 61 -2.33139357433299931e-03
 62 -6.15170156626452538e-04
 63 -3.39957404171872075e-03
 64  7.75093151839355027e-04
 65 -1.51396666051567541e-03
 66  1.09226422078149952e-04
 67  1.19378482499844915e-03
 68  1.74661341416969214e-04
 69  2.53688517541690271e-02
 70  2.98554552280418019e-03
 71  9.74386693806956919e-04
 72  5.50875710657954248e-03
 73  3.05506473074232279e-04
 74 -1.00184136185429810e-03
 75  1.24410342924819979e-03
 76 -2.33824821010096052e-04
 77  2.32261910546177429e-04
 78  4.11827760502071554e-04
 79 -4.50859352088581422e-05
 80 -8.16572638213415602e-04
 81 -1.25211092769991024e-03
 82 -2.00859160503203023e-03
 83  2.08647493400865503e-04
 84  3.94510994442498659e-03
 85  1.89520188679417759e-03
 86  2.79360640146490095e-03
 87  1.27102357078276375e-04
 88 -9.65984475516955591e-04
 89 -1.29200608341535823e-03
 90  1.94418928041487993e-03
 91 -5.04094120435617170e-05
 92 -4.76050206359178928e-04
 93  1.15434838579931453e-04
 94 -1.52664097453383257e-02
 95 -1.96858439403251170e-03
 96  1.10053824955263523e-04
 97  1.07624329405118873e-03
 98 -2.66797650265986010e-04
 99  2.10190854695263042e-04
100  1.64588852846567538e-03
101 -7.46236196984006610e-05
102  2.19634574950078295e-05
103 -6.92647572885489465e-05
104 -9.89794797112976818e-06
105 -1.12333973402418630e-04
106 -2.51613514120613139e-04
107  3.20199648334307859e-04
108  9.98282853257876485e-05
109  6.65508496223966633e-04
110 -1.89669148006843319e-03
111 -6.51890411630377483e-04
112  6.75634591929357678e-04
113  2.47183079302466715e-04
114 -2.46608021666886107e-04
115 -3.36340537831100750e-04
116 -1.43172333640467553e-04
117  5.32673485304476903e-05
118 -1.20211197383684299e-05
119  9.03897921060404369e-03
120  1.16001350291463972e-03
121 -1.30031765658030168e-03
122 -6.33791029486648668e-04
123  3.52802331967260228e-05
124 -1.66925185728372493e-04
125 -4.44606230715659961e-04
126 -1.10018103401592629e-04
127  2.00274071081812569e-04
128 -9.30239555473162877e-05
129 -4.37665480548126809e-05
130  3.61293716742601276e-05
131 -3.55061285500532454e-06
132  1.75524120308265996e-05
133 -1.29543584567737291e-05
134 -5.21440426889969197e-04
135  7.49040880973200610e-05
136 -1.00604646644743598e-04
137  1.62903519674960910e-04
138  2.90245642147127659e-03
139 -4.54973673262890543e-04
140  1.36183255280971987e-04
141 -8.01541372526148833e-04
142  1.59496962405459219e-05
143  8.93753691321420526e-05
144  1.04218505175829544e-05
145 -5.45330582053950609e-06
146  2.63432524895489339e-05
147 -4.40915383362561371e-03
148  2.91309102330252097e-03
149  1.12824966255251121e-04
150  2.67345148501276511e-05
151  6.86146101226826183e-05
152 -5.27127144541406144e-04
153  3.63654704725663281e-04
154 -1.54533653038487543e-05
155 -1.88116096158762050e-04
156  2.10418050882099319e-04
 Sym= A
 Ene= -1.04056026568157520e+01
 Spin= Alpha
 Occup=  1.00000000000000000e+00
  1  3.80029546727092137e-04
  2  2.46831552513335412e-04
  3  3.01316165710425335e-05
  4  1.00281257931999595e-05
  5 -8.77510363607457205e-05
  6  3.67085575800293093e-04
  7 -3.16485109571023400e-04
  8 -3.51773478647222356e-05
  9  4.22011174443586768e-04
 10  1.88261767267069958e-03
 11 -3.93800155310885223e-04
 12 -1.15711645950062364e-04
 13 -4.53672382511977079e-04
 14  1.66771557965742802e-04
 15 -1.33256578374142334e-04
 16 -1.63875546513420179e-06
 17 -1.36312469219473936e-04
 18  1.62128288900292486e-04
 19  1.20981602647700446e-02
 20 -1.99197516742276011e-03
 21 -4.76363895956795794e-05
 22  4.18673676702935836e-03
 23  6.80385076797106501e-05
 24  1.27233221398582203e-05
 25 -5.17420315714713260e-04
 26  1.42577599222319239e-04
 27  4.01648294270338471e-05
 28  4.31557617901695158e-05
 29 -2.52401262332340358e-05
 30 -3.50912201311198821e-05
 31  5.72646636424592502e-04
 32 -2.46791056672378598e-04
 33  8.28340466621566284e-05
 34  2.74140379099478996e-04
 35 -3.65175872768598326e-03
 36  1.60118469760550295e-03
 37  2.46098039074943247e-04
 38 -2.00100415943657312e-03
 39 -5.88356271438509855e-05
 40  9.34771528051309004e-07
 41  4.52368174250633219e-06
 42 -3.72918749495690401e-05
 43  3.36881563151098496e-05
 44 -1.04855530766093438e-02
 45  3.83269056201354045e-03
 46 -1.11449685446347447e-05
 47 -1.43693466868844853e-03
 48  8.88515720457899353e-05
 49 -3.41185910578958190e-04
 50 -7.66377487310698465e-04
 51 -5.46079551559701802e-05
 52 -1.46079543373130502e-04
 53  9.05194904424386736e-05
 54 -2.10225152379852077e-05
 55 -9.99936015629250595e-05
 56  4.41194708738774596e-04
 57 -6.06936220096433027e-04
 58  1.26172491269911088e-04
 59  9.75632130997522115e-04
 60  3.46740924817572679e-03
 61  2.45751359023195027e-03
 62  2.73928131165077494e-04
 63  1.87258485589447536e-03
 64  2.95047213692481674e-04
 65 -3.90902692579118396e-04
 66 -3.87961774825463319e-05
 67 -7.53696475672419519e-05
 68 -1.06393469614592516e-04
 69  2.45759979506860668e-02
 70  1.30753257702935694e-03
 71  1.09759966432091739e-03
 72  3.63426737527060154e-03
 73  2.20344716623763372e-05
 74  6.15165703964583982e-04
 75 -8.35360180450195745e-05
 76  5.53432181549894363e-05
 77 -3.63124737146004017e-06
 78 -1.93426077726057484e-04
 79 -1.06883126818924462e-04
 80 -5.96862656721152914e-04
 81  5.44751065837861654e-05
 82  1.90879894340723982e-04
 83  2.66454377926519785e-04
 84  1.89421570666193262e-03
 85 -7.24826284428575773e-03
 86 -4.11182929607857833e-03
 87 -9.13889041780592852e-04
 88 -3.43150856686876438e-03
 89  3.41684946770859658e-04
 90  1.03744946760856750e-03
 91  2.78405150803404718e-04
 92 -5.40554885500111931e-05
 93  1.08999077764960586e-04
 94 -1.86917863530763895e-02
 95 -3.70080371698559016e-03
 96 -8.39290993731041813e-04
 97  2.22459915181269291e-03
 98  1.70920950113172731e-04
 99 -2.52516076463100872e-04
100 -1.20163290734968454e-03
101 -5.63003732215707875e-01
102 -4.63571310550263294e-01
103  4.12535018593790414e-04
104  1.35345476186433532e-04
105  6.23889050421538231e-04
106 -1.77726594552607975e-02
107 -6.51924309172138210e-04
108  4.00757916373794783e-04
109  5.66348668267772980e-04
110  2.37002104263959595e-02
111  1.27186914494714122e-03
112 -7.99389033260349620e-04
113 -2.48368951435690632e-03
114 -2.17114154392228272e-05
115 -2.86243444304391662e-04
116 -6.06405619907286885e-05
117 -3.17482379635751499e-04
118  8.52123676884968201e-05
119  1.21269910677492161e-02
120  1.34159009639100426e-03
121  7.02547516557136130e-04
122 -1.01164809536810987e-03
123  1.43891457641574696e-04
124 -1.16616990863217481e-03
125 -3.98788234332139030e-03
126  1.09763458704999751e-04
127 -8.37463039004387707e-04
128 -3.62374630306469417e-03
129 -1.45419473272246714e-03
130 -1.29079806683064921e-03
131  4.80880010193575629e-04
132 -1.63366198095393869e-04
133 -6.19872628808612049e-05
134  2.73461456784078352e-04
135 -1.13170987196950317e-03
136  3.83045126798729600e-04
137  2.79146964804119111e-04
138 -6.07225206795771778e-03
139  2.76612518088222015e-03
140 -1.34457313428574762e-03
141 -2.15132762207721241e-04
142 -4.90819549732434139e-04
143  9.49298801194517499e-05
144  6.11883685941411957e-05
145  6.58168059093145082e-04
146 -5.21368518590991899e-04
147 -1.71850693998614745e-02
148 -9.39828088870920471e-04
149 -2.31161885621011289e-03
150  2.80474781897527281e-03
151  1.74689712922732358e-04
152  3.01530033818115512e-04
153 -3.63849055572112957e-04
154  8.88937482443040585e-05
155  5.53054429500809248e-04
156  5.70072402935555065e-04
 Sym= A
 Ene= -1.03975775962574435e+01
 Spin= Alpha
 Occup=  1.00000000000000000e+00
  1 -5.62788211764793656e-01
  2 -4.63340390246792133e-01
  3 -3.24874998398005173e-04
  4  1.77482214338804009e-05
  5 -3.70976001865686608e-04
  6 -1.84297099655813847e-02
  7  2.87039434751677194e-03
  8  6.40353027819044404e-05
  9  2.95870462867032710e-03
 10  1.32929572563370065e-02
 11 -3.19244593347004337e-03
 12 -6.35019942058804351e-04
 13 -2.07476043705569115e-04
 14 -1.63579142561113308e-03
 15 -1.43495450004366403e-03
 16  2.32349657529421909e-04
 17 -6.59414454184536537e-04
 18 -1.06980749582429681e-05
 19 -1.57971184921973477e-02
 20  4.35453590341286240e-03
 21  1.49933816048212001e-03
 22  1.73862659181171254e-03
 23 -2.81490952699446097e-04
 24  8.39472776078586231e-04
 25 -1.53249328071599212e-03
 26 -1.07997580920335869e-02
 27 -9.33817561839062060e-03
 28 -5.90436125179211895e-04
 29  1.37485224582594264e-05
 30 -7.52531945678432015e-04
 31  1.15206978692236985e-03
 32  3.20907613486632291e-03
 33 -7.19749301318203322e-05
 34  4.11813285987899097e-03
 35 -5.68382395068241339e-04
 36 -2.99076098912570633e-04
 37  4.32485985809624013e-04
 38 -2.70481391735380742e-03
 39  1.73712484257190032e-03
 40  2.06107094141795393e-03
 41 -9.16157516135905219e-05
 42  2.67092075953362276e-04
 43 -1.89281036724047623e-04
 44  8.10584839694882507e-03
 45  1.66113007357271479e-03
 46 -5.70741249427733394e-04
 47  2.50126302597293505e-04
 48  2.75857038999756615e-04
 49 -1.89213810673988583e-04
 50 -1.61322962582467863e-03
 51 -4.14022375387345599e-06
 52 -8.66688598307568643e-05
 53 -2.18327662261194464e-04
 54 -2.95126924355883069e-05
 55  8.28008677520142397e-05
 56  3.62250562182779166e-04
 57  1.35698473790775345e-03
 58  1.63695037549650777e-04
 59 -3.97261434669848824e-04
 60 -3.99067307640443738e-04
 61 -5.70871903565418047e-04
 62 -2.24500452944077788e-04
 63 -7.67397701816442484e-05
 64 -6.29413447960386883e-04
 65  1.68832546811761288e-04
 66  2.49966543830229640e-05
 67  3.55773257437808305e-04
 68  1.24655823831522523e-04
 69  1.66751695193709942e-02
 70 -2.68781299189710214e-03
 71  3.47937860766702245e-05
 72  3.54761841954604916e-03
 73  8.72177599613833216e-05
 74  7.07757918256972542e-05
 75 -8.27752425905604037e-04
 76  1.18823206202494787e-05
 77 -6.17490381980004347e-05
 78 -2.23201450850475795e-05
 79 -1.56782318706531660e-06
 80  3.79043582799033462e-05
 81  3.52538345735130471e-04
 82  3.57484237377864199e-04
 83 -2.11236365941728261e-06
 84 -4.28858537872110193e-04
 85  4.88253285522658430e-04
 86  5.39991303952582044e-04
 87  2.84683732519624749e-04
 88  5.19055532823200197e-06
 89  1.00287464854815079e-04
 90 -2.31114742063688637e-04
 91  5.08152623137234503e-05
 92 -1.92132930988297497e-05
 93 -6.41836333430537445e-06
 94 -6.74520166633945425e-03
 95 -1.07276051695408834e-03
 96  6.93477037726261528e-04
 97  6.40354391171289814e-03
 98  3.36783307140537766e-05
 99  1.75958022631344266e-04
100 -1.05566791638268852e-04
101 -3.64541892946660263e-04
102 -3.62858825082832434e-04
103 -5.73850373579572567e-05
104 -7.34319451397465133e-06
105 -1.31379222520266221e-05
106  3.98923039470462681e-04
107  3.33894609988922490e-04
108 -1.44228031513694261e-05
109 -4.62036466214501960e-05
110 -7.46199830364845909e-04
111 -6.56964993147442656e-04
112 -8.98862297264533898e-04
113  4.53564189937349265e-04
114 -1.00001451025787106e-04
115  1.04957282822284721e-04
116  3.50102557802221693e-05
117  7.66063528409563949e-05
118 -5.02229662814496111e-05
119  1.02263763959618858e-03
120  4.77681944348973351e-03
121  5.60014920293889335e-04
122  1.77538935443009448e-03
123 -1.02496668071654234e-04
124  6.91517629544842146e-04
125  9.71098222686096144e-05
126  8.32824292413984811e-05
127 -1.97605645377937238e-04
128 -4.38909520131956570e-04
129 -2.27259704350291905e-03
130 -1.94019594252553117e-03
131 -2.40641305848754243e-04
132 -9.94132331345998058e-05
133  4.04613896565591147e-04
134 -1.09589767294935268e-04
135  5.60738157989077845e-04
136  2.01327547005773582e-04
137 -8.73763678469028954e-04
138 -2.05032886369695610e-03
139 -2.55194563734478731e-04
140  4.19446619667643663e-04
141  1.52537365140408801e-03
142  5.65640408622017582e-04
143 -6.11760349265332731e-04
144 -2.84765823082308285e-04
145  2.39359689047366985e-04
146  2.19625209635058484e-04
147 -3.81387342163480754e-03
148  1.96307619653508531e-03
149 -2.02690880150888184e-03
150 -1.88111328857439052e-03
151  1.65173451154963769e-04
152  3.49345595280148346e-04
153  1.42139759823805005e-04
154  1.48857734961749434e-04
155 -1.64594923714788419e-04
156  3.67386915844756027e-04
 Sym= A
 Ene= -1.03773015102831732e+01
 Spin= Alpha
 Occup=  1.00000000000000000e+00
  1  1.10271847271518463e-02
  2  8.62164640514265918e-03
  3  4.11795430260865900e-04
  4 -4.94185976589940520e-05
  5  8.32683055332775549e-04
  6  1.86812027414797865e-03
  7 -2.28147860108955571e-03
  8  2.36087259472713475e-04
  9 -4.45949086681811640e-03
 10 -2.30615921631715072e-03
 11  2.89500034787213865e-03
 12  8.58912542692411414e-05
 13  1.21205049563459619e-03
 14  1.46531520046737970e-03
 15  2.16731572396611574e-03
 16 -6.27989785238722861e-05
 17  5.26492554243007107e-04
 18 -1.28361732901796692e-04
 19  1.67017430914697881e-02
 20 -2.00294408781382088e-03
 21  2.32473683887644399e-04
 22 -1.81852961040819398e-03
 23  2.91873060251651327e-04
 24 -1.99081720775127395e-04
 25 -1.69031086066084055e-03
 26 -5.62745037546356075e-01
 27 -4.63242302542991258e-01
 28  4.66941854891358239e-04
 29  1.63946608325787278e-05
 30  4.38407409385894466e-04
 31 -1.89549926507045635e-02
 32 -1.03308765576077752e-03
 33  3.20564830071341106e-04
 34 -3.88656434752824827e-03
 35  1.50885187740502635e-02
 36 -2.05201950582309519e-03
 37 -6.07077095198292204e-04
 38  3.93597216450027390e-03
 39 -9.64869587295934684e-04
 40 -1.78105339983156250e-03
 41  1.03419229209974616e-04
 42 -1.13668662638809637e-03
 43 -1.23815605170946334e-04
 44 -2.69949765607851062e-02
 45  2.26651353959039402e-03
 46  9.12944557482710446e-04
 47 -6.21196413293792146e-03
 48 -3.36904505517555454e-04
 49  1.03197125809008534e-03
 50 -1.16243788796619157e-03
 51  1.04894700834786163e-03
 52  7.85764814789136328e-04
 53 -6.30697928424651553e-04
 54 -7.70499554711339752e-05
 55  8.07694126247906574e-05
 56  2.45009063168366999e-06
 57  1.96360270214297273e-03
 58  1.99352378824348977e-04
 59 -5.48998961977177147e-04
 60 -4.75921515245026489e-03
 61 -2.75743190337615369e-03
 62 -5.23395327510997989e-04
 63 -2.77500448220894440e-03
 64 -7.89824303377852847e-04
 65  1.69051656605035403e-04
 66 -9.28936757369685709e-05
 67  8.98244235841947724e-04
 68  3.44335252834675697e-04
 69  1.98871801571801100e-02
 70  1.07182429256342257e-03
 71 -9.45822295522456168e-05
 72  2.55615588292929744e-03
 73  1.79497011050215111e-04
 74 -3.89160039355463761e-04
 75 -1.65969900043700389e-03
 76  1.25221874031827494e-05
 77 -7.03916039227349248e-05
 78 -4.69541506984676391e-05
 79 -1.31983653314054250e-05
 80  9.44386023111735718e-05
 81  3.53046704405954499e-04
 82  5.30564362947682079e-04
 83  4.83083956107983851e-05
 84 -7.62997855928885561e-04
 85  3.46899277767768370e-03
 86  1.62962262180182710e-03
 87  1.82040310348862561e-04
 88  4.09418577052179629e-04
 89  1.44885598768056139e-04