[Molden Format]
[Atoms] (AU)
C    1    6         2.688203947216       0.126267316038      -0.211284584910
H    2    1         4.728095907479       0.359456870713      -0.218011119477
C    3    6         1.369782617967       0.204435981782      -2.374855666231
H    4    1         2.318345438850       0.530982748944      -4.165937681460
C    5    6        -1.369782617967      -0.204435981782      -2.374855666231
H    6    1        -2.318345438850      -0.530982748944      -4.165937681460
C    7    6        -2.688203947216      -0.126267316038      -0.211284584910
H    8    1        -4.728095907290      -0.359456870902      -0.218011119477
C    9    6        -1.377448045575       0.458746757807       2.255586404767
H   10    1        -1.428727068278       2.518961490447       2.552818698465
H   11    1        -2.401900037590      -0.368832778254       3.849461186775
C   12    6         1.377448045575      -0.458746757807       2.255586404767
H   13    1         1.428727068278      -2.518961490069       2.552818698465
H   14    1         2.401900037401       0.368832778065       3.849461186397
[GTO]
  1 0
 s    6  1.00
     4563.2400000000         0.0019666500
      682.0240000000         0.0152306000
      154.9730000000         0.0761269000
       44.4553000000         0.2608010000
       13.0290000000         0.6164620000
        1.8277300000         0.2210060000
 s    3  1.00
       20.9642000000         0.1146600000
        4.8033100000         0.9199990000
        1.4593300000        -0.0030306800
 p    3  1.00
       20.9642000000         0.0402487000
        4.8033100000         0.2375940000
        1.4593300000         0.8158540000
 s    1  1.00
        0.4834560000         1.0000000000
 p    1  1.00
        0.4834560000         1.0000000000
 s    1  1.00
        0.1455850000         1.0000000000
 p    1  1.00
        0.1455850000         1.0000000000
 d    1  1.00
        0.6260000000         1.0000000000
 s    1  1.00
        0.0438000000         1.0000000000
 p    1  1.00
        0.0438000000         1.0000000000

  2 0
 s    3  1.00
       33.8650000000         0.0254938000
        5.0947900000         0.1903730000
        1.1587900000         0.8521610000
 s    1  1.00
        0.3258400000         1.0000000000
 s    1  1.00
        0.1027410000         1.0000000000

  3 0
 s    6  1.00
     4563.2400000000         0.0019666500
      682.0240000000         0.0152306000
      154.9730000000         0.0761269000
       44.4553000000         0.2608010000
       13.0290000000         0.6164620000
        1.8277300000         0.2210060000
 s    3  1.00
       20.9642000000         0.1146600000
        4.8033100000         0.9199990000
        1.4593300000        -0.0030306800
 p    3  1.00
       20.9642000000         0.0402487000
        4.8033100000         0.2375940000
        1.4593300000         0.8158540000
 s    1  1.00
        0.4834560000         1.0000000000
 p    1  1.00
        0.4834560000         1.0000000000
 s    1  1.00
        0.1455850000         1.0000000000
 p    1  1.00
        0.1455850000         1.0000000000
 d    1  1.00
        0.6260000000         1.0000000000
 s    1  1.00
        0.0438000000         1.0000000000
 p    1  1.00
        0.0438000000         1.0000000000

  4 0
 s    3  1.00
       33.8650000000         0.0254938000
        5.0947900000         0.1903730000
        1.1587900000         0.8521610000
 s    1  1.00
        0.3258400000         1.0000000000
 s    1  1.00
        0.1027410000         1.0000000000

  5 0
 s    6  1.00
     4563.2400000000         0.0019666500
      682.0240000000         0.0152306000
      154.9730000000         0.0761269000
       44.4553000000         0.2608010000
       13.0290000000         0.6164620000
        1.8277300000         0.2210060000
 s    3  1.00
       20.9642000000         0.1146600000
        4.8033100000         0.9199990000
        1.4593300000        -0.0030306800
 p    3  1.00
       20.9642000000         0.0402487000
        4.8033100000         0.2375940000
        1.4593300000         0.8158540000
 s    1  1.00
        0.4834560000         1.0000000000
 p    1  1.00
        0.4834560000         1.0000000000
 s    1  1.00
        0.1455850000         1.0000000000
 p    1  1.00
        0.1455850000         1.0000000000
 d    1  1.00
        0.6260000000         1.0000000000
 s    1  1.00
        0.0438000000         1.0000000000
 p    1  1.00
        0.0438000000         1.0000000000

  6 0
 s    3  1.00
       33.8650000000         0.0254938000
        5.0947900000         0.1903730000
        1.1587900000         0.8521610000
 s    1  1.00
        0.3258400000         1.0000000000
 s    1  1.00
        0.1027410000         1.0000000000

  7 0
 s    6  1.00
     4563.2400000000         0.0019666500
      682.0240000000         0.0152306000
      154.9730000000         0.0761269000
       44.4553000000         0.2608010000
       13.0290000000         0.6164620000
        1.8277300000         0.2210060000
 s    3  1.00
       20.9642000000         0.1146600000
        4.8033100000         0.9199990000
        1.4593300000        -0.0030306800
 p    3  1.00
       20.9642000000         0.0402487000
        4.8033100000         0.2375940000
        1.4593300000         0.8158540000
 s    1  1.00
        0.4834560000         1.0000000000
 p    1  1.00
        0.4834560000         1.0000000000
 s    1  1.00
        0.1455850000         1.0000000000
 p    1  1.00
        0.1455850000         1.0000000000
 d    1  1.00
        0.6260000000         1.0000000000
 s    1  1.00
        0.0438000000         1.0000000000
 p    1  1.00
        0.0438000000         1.0000000000

  8 0
 s    3  1.00
       33.8650000000         0.0254938000
        5.0947900000         0.1903730000
        1.1587900000         0.8521610000
 s    1  1.00
        0.3258400000         1.0000000000
 s    1  1.00
        0.1027410000         1.0000000000

  9 0
 s    6  1.00
     4563.2400000000         0.0019666500
      682.0240000000         0.0152306000
      154.9730000000         0.0761269000
       44.4553000000         0.2608010000
       13.0290000000         0.6164620000
        1.8277300000         0.2210060000
 s    3  1.00
       20.9642000000         0.1146600000
        4.8033100000         0.9199990000
        1.4593300000        -0.0030306800
 p    3  1.00
       20.9642000000         0.0402487000
        4.8033100000         0.2375940000
        1.4593300000         0.8158540000
 s    1  1.00
        0.4834560000         1.0000000000
 p    1  1.00
        0.4834560000         1.0000000000
 s    1  1.00
        0.1455850000         1.0000000000
 p    1  1.00
        0.1455850000         1.0000000000
 d    1  1.00
        0.6260000000         1.0000000000
 s    1  1.00
        0.0438000000         1.0000000000
 p    1  1.00
        0.0438000000         1.0000000000

  10 0
 s    3  1.00
       33.8650000000         0.0254938000
        5.0947900000         0.1903730000
        1.1587900000         0.8521610000
 s    1  1.00
        0.3258400000         1.0000000000
 s    1  1.00
        0.1027410000         1.0000000000

  11 0
 s    3  1.00
       33.8650000000         0.0254938000
        5.0947900000         0.1903730000
        1.1587900000         0.8521610000
 s    1  1.00
        0.3258400000         1.0000000000
 s    1  1.00
        0.1027410000         1.0000000000

  12 0
 s    6  1.00
     4563.2400000000         0.0019666500
      682.0240000000         0.0152306000
      154.9730000000         0.0761269000
       44.4553000000         0.2608010000
       13.0290000000         0.6164620000
        1.8277300000         0.2210060000
 s    3  1.00
       20.9642000000         0.1146600000
        4.8033100000         0.9199990000
        1.4593300000        -0.0030306800
 p    3  1.00
       20.9642000000         0.0402487000
        4.8033100000         0.2375940000
        1.4593300000         0.8158540000
 s    1  1.00
        0.4834560000         1.0000000000
 p    1  1.00
        0.4834560000         1.0000000000
 s    1  1.00
        0.1455850000         1.0000000000
 p    1  1.00
        0.1455850000         1.0000000000
 d    1  1.00
        0.6260000000         1.0000000000
 s    1  1.00
        0.0438000000         1.0000000000
 p    1  1.00
        0.0438000000         1.0000000000

  13 0
 s    3  1.00
       33.8650000000         0.0254938000
        5.0947900000         0.1903730000
        1.1587900000         0.8521610000
 s    1  1.00
        0.3258400000         1.0000000000
 s    1  1.00
        0.1027410000         1.0000000000

  14 0
 s    3  1.00
       33.8650000000         0.0254938000
        5.0947900000         0.1903730000
        1.1587900000         0.8521610000
 s    1  1.00
        0.3258400000         1.0000000000
 s    1  1.00
        0.1027410000         1.0000000000

[5D]
[9G]

[MO]
 Sym= A
 Ene= -1.37209957732145611e+01
 Spin= Alpha
 Occup=  1.00000000000000000e+00
  1 -4.69539347200081096e-05
  2  2.62077578872626745e-04
  3 -8.42337754213985098e-05
  4 -5.15998890840088856e-06
  5 -1.37804595155055607e-04
  6 -1.37117508015610883e-03
  7  1.32047796456337928e-03
  8 -1.35340957051049378e-05
  9  1.58765890696738079e-03
 10 -9.79273140622626296e-04
 11  1.43199868887602380e-03
 12  9.39985656815538976e-04
 13 -1.83357659661444704e-04
 14 -3.82651455192318699e-04
 15 -8.33860227847695859e-04
 16  1.92244499689049305e-04
 17  7.48804790979734126e-05
 18  2.64176859355664726e-05
 19  2.20890434283626778e-02
 20 -3.65253718848221635e-03
 21  2.30248717657810260e-03
 22 -2.10393816927847664e-02
 23 -1.39056002491345568e-04
 24 -5.60505695808122912e-04
 25  5.01372046607858886e-04
 26 -5.09228874711040766e-05
 27  3.02692772486052198e-04
 28 -7.99458916798553051e-04
 29 -1.08133811484990413e-04
 30 -2.96699283411111135e-04
 31 -1.38656989963761640e-03
 32  5.03402571699225043e-03
 33  6.03568012350396495e-04
 34  1.42104941256330206e-03
 35  8.24453607844055636e-04
 36 -2.05470838103819940e-03
 37 -7.42014647058584489e-04
 38 -2.42267577380908306e-04
 39  2.31527641110015198e-03
 40  6.87964193153282107e-04
 41  1.12142999162690205e-04
 42 -1.27711781644691174e-03
 43 -4.38173341146361141e-04
 44 -5.57292219581329365e-02
 45 -8.52378241644095348e-03
 46  1.85381638421392065e-04
 47 -1.14624062757268923e-02
 48 -3.17464497131107434e-04
 49 -3.24016858013139917e-04
 50  2.77488116376921595e-03
 51 -3.85533370664797870e-04
 52  1.73905081029236837e-03
 53 -1.96382187889926601e-03
 54  2.88460146927644658e-05
 55  2.35293372964634527e-03
 56 -6.49103456610715997e-03
 57  1.23288206151543362e-02
 58 -2.78177419126084103e-04
 59 -1.59309100561822216e-02
 60  3.75619467602640198e-03
 61 -1.28683580957967788e-03
 62  1.53498374422644606e-03
 63  1.03273949033856685e-02
 64 -6.66824725836018522e-03
 65  8.11180279043168841e-03
 66 -3.25189215129096970e-04
 67 -9.64360581279027776e-04
 68  7.64951301635302498e-04
 69 -3.14456687422942222e-02
 70  6.64200536891955927e-03
 71 -1.90548989020504662e-03
 72 -2.12405964073892608e-03
 73 -1.10127891102527499e-03
 74  7.43997064844320274e-04
 75  5.76155149732923959e-03
 76 -6.23892353549743262e-01
 77 -4.20864333718874550e-01
 78 -1.96254894128625526e-03
 79 -1.20077318693704289e-04
 80  1.57551416131641278e-03
 81  5.70869734802927423e-02
 82  1.12659946498637545e-02
 83  4.03816813321509571e-04
 84 -1.05768578918321674e-02
 85 -4.78306171232220426e-02
 86 -1.17564249155331264e-02
 87 -2.20555475012282950e-03
 88  1.17966911088704840e-03
 89  6.00461528806940127e-03
 90 -4.85882599511927929e-03
 91  8.45617462127051041e-04
 92  1.84797806569089642e-03
 93 -3.38733502183505823e-05
 94  5.98104887321204842e-02
 95  1.52998110469151349e-02
 96  5.05247063503176663e-03
 97 -6.64131800099804909e-03
 98  1.26663828161492403e-04
 99 -2.37651706181420379e-03
100  4.57999001246073983e-03
101 -7.24984649526723472e-05
102  4.29599013385370196e-04
103 -8.53163186914457751e-04
104 -3.26538083223241635e-04
105 -1.39706518424928408e-03
106 -4.98958919982552028e-04
107  2.62389600112253318e-03
108  9.23547885682931440e-04
109  4.15765356389365560e-03
110  7.66541656300242288e-03
111 -8.65080347827046955e-04
112  1.25970259749415324e-03
113 -5.54979434773985193e-03
114 -2.48829417214181843e-03
115 -2.64713371682381978e-03
116 -1.22701806697134478e-03
117 -8.43703639884567326e-04
118 -9.17180374945907625e-04
119  1.09880663203210851e-02
120  6.82302675160189817e-03
121 -6.65450118067069558e-03
122  6.89749361542050209e-03
123 -6.32958686800215529e-04
124 -1.23340744905161225e-03
125 -2.86834872037189988e-04
126 -5.86104024132023580e-04
127  4.35557574031682855e-04
128 -9.93046269174844339e-04
129 -3.62500447470362293e-05
130  2.33196750581380084e-04
131 -2.41317419635829375e-04
132 -8.99287116769501597e-06
133  5.29559833796683352e-05
134 -1.46206971499258150e-03
135  1.33827047254577391e-03
136 -1.36687355809731587e-04
137  1.53675027349481195e-04
138  2.10598569444414444e-03
139 -2.16609833879031653e-03
140 -3.06409944802811486e-03
141 -1.46468619677414189e-03
142  4.31679255807443233e-04
143  3.96522291198429691e-04
144  1.54552812735568834e-04
145 -3.17928259199955752e-04
146  2.47709980550178254e-04
147 -4.06502279278728174e-03
148  1.59593311623340145e-02
149  1.74483532824644383e-03
150 -5.97913763040404823e-03
151  3.54698917702238445e-04
152 -2.32620905782015327e-03
153 -2.89457781151743947e-04
154 -3.27246557266003366e-04
155  6.78820940049128284e-04
156  1.63190133200084831e-03
 Sym= A
 Ene= -1.15275143922481966e+01
 Spin= Alpha
 Occup=  1.00000000000000000e+00
  1  2.35135082152123013e-05
  2  1.26016713574137503e-05
  3  8.34202025505549699e-06
  4 -3.36224022819389939e-06
  5  5.74408882198149412e-06
  6  3.65412825373494341e-05
  7 -3.54073477240089105e-05
  8  7.07880347788324075e-06
  9 -4.18491095317003316e-05
 10  8.25351974109059358e-05
 11  1.76567981517737162e-05
 12  9.83264214065771015e-07
 13 -1.17917889000003179e-05
 14 -2.40796460024471923e-06
 15  2.03557744090770908e-05
 16 -2.85181853563948696e-06
 17  4.48318521558669987e-06
 18 -3.61582075944325847e-06
 19 -7.80292607414896948e-04
 20  1.41151438388726963e-04
 21  6.57469653838385062e-05
 22 -5.15799002125270499e-04
 23  5.21585670300687078e-06
 24 -4.26140291590650235e-06
 25  7.06456137935711149e-06
 26  2.53328421896632967e-03
 27  2.04653556713586078e-03
 28 -1.57671411769414561e-04
 29 -2.28771012249301321e-05
 30 -6.19823115586187005e-07
 31  2.66102543535155734e-04
 32 -1.44486451642770206e-04
 33 -1.80329484789766803e-05
 34 -1.86670759360995098e-05
 35 -7.83042357096623201e-05
 36 -5.89725773116824719e-05
 37 -9.34617873928877433e-06
 38 -9.24284798997923260e-05
 39 -9.94723410214158577e-05
 40 -3.72181926493001601e-05
 41 -7.87550222968736952e-06
 42 -6.22822744302886652e-06
 43 -3.74729022879577202e-06
 44 -1.22850909422207483e-03
 45 -7.07735590828596875e-05
 46 -1.27069182973634144e-05
 47 -6.99508033492875064e-06
 48  6.07893340086034531e-06
 49 -5.67454521777813154e-06
 50  8.65618107234311036e-06
 51  5.63583512123734809e-01
 52  4.66734870384949929e-01
 53 -4.49058529498120706e-04
 54 -2.43148772313057721e-05
 55  7.37410983537213562e-04
 56  2.94119742174244218e-03
 57  4.15877960606161445e-04
 58  1.50585028529927019e-05
 59 -6.61895619929225702e-04
 60 -1.38589070234962212e-04
 61 -2.72460494301593990e-04
 62 -1.55326424422764997e-06
 63  4.79830143766968970e-04
 64  2.24644962570070633e-04
 65  1.47141801927822290e-04
 66  1.28283226163523217e-04
 67  5.33270242666990962e-04
 68  1.67538906682272617e-04
 69 -1.58637306200811579e-04
 70  8.79399547590832813e-04
 71  1.24951352502153081e-04
 72  1.11808879441526070e-04
 73  3.47635307892726344e-04
 74 -1.59973909793218486e-04
 75  5.37517996058940566e-04
 76 -3.11080876685720475e-04
 77 -3.17414445939056210e-04
 78  1.73400422501432318e-04
 79 -5.18729487231175080e-06
 80 -2.65675164571773411e-04
 81  7.19668055790711808e-04
 82  2.50760899616295891e-04
 83 -3.19386338470001397e-05
 84 -4.97443279613812221e-04
 85 -5.20724996776005563e-04
 86 -3.71422754318107592e-05
 87  3.44436456468776996e-05
 88  2.62712581570025876e-04
 89  1.27647082661463821e-04
 90 -2.58405106924497431e-04
 91 -1.37431353643982949e-05
 92 -3.41585926089985829e-05
 93 -4.26226852364857103e-05
 94 -2.59563036096171985e-04
 95 -1.90995943540078869e-04
 96 -9.76889539727660342e-05
 97 -8.96035836597100619e-04
 98  2.32776181044099107e-05
 99  4.53795362041830043e-05
100 -2.33278744926060403e-05
101 -5.67162964399474086e-05
102 -5.78105632032097064e-05
103  2.09211449050115900e-06
104  2.20437084374094019e-06
105  1.97304704520635556e-05
106  5.86658343816981483e-05
107 -2.11193712009184009e-05
108 -1.38343950536596479e-05
109 -8.32149647823252444e-05
110 -1.31100150366799566e-04
111 -1.50927549321672764e-05
112  2.01668208006135964e-05
113  1.07524852814214154e-04
114  3.38811926128683731e-05
115  1.53593474123626818e-05
116  1.16164567666835469e-05
117 -1.42833139099413793e-05
118  5.28336580542876685e-06
119  1.64668496741256763e-03
120 -2.29113129199205073e-04
121 -2.45642353992920064e-04
122 -2.24676291833697929e-04
123 -4.22647990984235136e-06
124  2.01799962147325784e-05
125 -5.94738624015463864e-05
126  2.48473171766642125e-06
127  2.72500124797018541e-05
128 -1.45302344750536318e-04
129 -2.00610445690284638e-05
130 -1.89031512052550548e-05
131  5.18256282039975589e-06
132 -3.17868787084957997e-06
133  4.72271911751737567e-06
134  4.88594862533171905e-06
135 -2.01882542566486167e-05
136  1.17246991250052430e-05
137 -1.16135147006443289e-05
138  4.94682768922801493e-05
139  1.20573209449428751e-05
140 -3.14581392251159849e-06
141  3.95605557572628765e-05
142 -5.59927417213790440e-06
143 -5.05081921096181862e-06
144 -1.67828925390368481e-06
145  3.95241845259378965e-06
146 -5.59841218077473464e-06
147  9.31429198018269102e-04
148  3.19508549947939487e-04
149  1.81956234085598091e-04
150 -2.11612528857381871e-04
151  1.89282606387867355e-06
152 -1.13880024659950782e-05
153 -3.01554752005614382e-05
154  2.13212321480064690e-06
155  6.18532759521469610e-07
156 -1.02091209783792452e-04
 Sym= A
 Ene= -1.14634221217633083e+01
 Spin= Alpha
 Occup=  1.00000000000000000e+00
  1 -4.65480452739241247e-05
  2 -3.67042099187409182e-05
  3 -4.52645084896043678e-07
  4  2.28600297262186617e-06
  5 -1.07479767381347519e-06
  6 -3.74876612072845512e-05
  7  1.88821938886221543e-05
  8 -1.67127267766900979e-06
  9 -1.48390869479291334e-05
 10 -1.36892108564721350e-05
 11 -9.02858970644352201e-05
 12 -4.19108374484404857e-05
 13  7.57444982415170800e-05
 14  1.24063417143540780e-05
 15  1.68794718978613588e-06
 16 -1.03823874440078271e-05
 17  9.87849367836405698e-06
 18 -1.02597979275103384e-05
 19 -2.51846004921324430e-03
 20  4.04414248110410222e-04
 21  3.16137842294837311e-05
 22 -3.23492290736070675e-04
 23 -3.99225740855206882e-07
 24  2.34542714762899101e-05
 25  1.03498996095486548e-04
 26 -6.31109811541117705e-05
 27 -5.12447168303302686e-05
 28  1.01499537996543736e-05
 29  4.00460142787116486e-06
 30  5.81487056736227903e-06
 31 -2.50130604848574884e-05
 32 -5.62958305336578408e-05
 33 -2.07721231798409106e-05
 34 -4.07424565865396174e-05
 35  3.58461883541537753e-04
 36 -1.19243816576469498e-04
 37  4.12086497761370768e-06
 38  1.52502021484046636e-04
 39 -2.02677250640131640e-05
 40 -4.48816756561726303e-06
 41 -2.60390802278748963e-08
 42  2.26812925046649513e-05
 43  3.35231083326089492e-06
 44  2.06648975519861146e-03
 45 -3.28412544427785392e-04
 46  6.19127794830427072e-06
 47  3.35589949662425211e-04
 48 -2.47635869172969802e-06
 49  2.49299859293111180e-05
 50  1.50446900302651965e-05
 51  6.41072111324611792e-05
 52  4.39978009759949611e-05
 53  8.11425528058919268e-06
 54  2.91547379897084238e-06
 55 -3.78167083860510300e-06
 56  7.70267264893041573e-05
 57 -6.66696002400841395e-05
 58 -1.06023098967303588e-05
 59  5.98707803812767445e-05
 60 -5.65504422812965939e-04
 61 -2.82422740465087250e-04
 62 -6.13994925651609402e-05
 63 -3.89536438260396675e-04
 64  4.15295361101082061e-05
 65 -4.42857523582693130e-05
 66  3.76460457345568498e-06
 67 -2.19860207304309446e-05
 68 -1.15776417652272519e-05
 69 -2.02257222953031775e-03
 70 -2.87823845638335220e-04
 71 -1.11656946819944851e-04
 72 -3.09524846418037425e-04
 73  1.62698372011109607e-05
 74 -8.03192084411741259e-05
 75 -8.15704377166880568e-05
 76 -1.27248422224385661e-04
 77 -1.77719957080177898e-04
 78  6.37905449810591659e-05
 79  2.72889878101906802e-05
 80  1.03649346632445210e-04
 81  3.71093584226202646e-04
 82  2.89125805840627402e-04
 83  1.41141155763729588e-04
 84  6.88687704547782421e-04
 85  1.27053769523742337e-03
 86  6.29804958855798014e-04
 87  1.15437097139909343e-04
 88  2.83388368984549923e-04
 89  2.05160683883530990e-04
 90  3.02833969804512377e-04
 91  1.05433444357059779e-04
 92  5.17758125444547055e-05
 93  6.16243333274505935e-05
 94  2.12646430528476817e-03
 95  2.82318402931687462e-04
 96  1.31246721782345789e-04
 97  1.81129884300411251e-04
 98  1.08758611744426276e-05
 99  5.10819078026113907e-05
100  1.07578181589576755e-04
101  5.63474886324509483e-01
102  4.66587097161741127e-01
103 -5.01963886133579835e-04
104 -3.31752751564702824e-04
105 -1.17469636054442052e-03
106  4.04567914810128378e-03
107  4.31308652756490446e-04
108  3.14018990417294674e-04
109  1.06490442133843634e-03
110 -3.02647847872373164e-03
111 -3.45003074345447635e-04
112 -1.81313194572378063e-05
113 -1.06992918027010603e-05
114 -2.88920602095428059e-04
115 -3.76105667874579430e-04
116 -1.98219321934259383e-04
117 -1.19643100926921069e-04
118 -3.11956025740017180e-05
119 -3.12110921459725745e-03
120 -4.81412143710705694e-05
121  9.31648507730832402e-05
122  4.06369676663454772e-04
123  3.06624259030186918e-04
124  1.88819278307510266e-04
125  7.16636728640544264e-04
126  3.04255392267246321e-04
127  1.09104285805621809e-04
128  7.07261720749801140e-04
129  3.73693951365371754e-03
130  3.04296365741539869e-03
131 -1.14777615602918565e-04
132  4.78091815228750826e-05
133  9.66951807073409554e-06
134  2.44977943136816159e-04
135 -2.63522278392336936e-04
136  5.39893718657150068e-05
137 -4.03819621765460167e-05
138  7.62619082596349327e-04
139 -3.62281012908184880e-04
140  2.42625405828414116e-04
141  1.75942307671629958e-04
142 -4.67986161559878731e-05
143  4.49343748720886597e-05
144  3.41784408500023659e-06
145  7.96757415891963407e-05
146 -3.84339781358388074e-05
147  3.06461970775996455e-03
148 -1.23609293937657283e-04
149  2.63500187953101441e-04
150 -5.23346150901301274e-04
151 -6.69175313216610555e-06
152  2.23873580361114136e-05
153 -4.09044656745990336e-05
154  4.18129009759492298e-06
155 -7.41700902513737196e-05
156 -1.34442702922958770e-04
 Sym= A
 Ene= -1.14360469941260163e+01
 Spin= Alpha
 Occup=  1.00000000000000000e+00
  1 -5.50719086481151310e-01
  2 -4.56042715751915517e-01
  3  1.40497504530897129e-04
  4  4.49130716568053962e-05
  5 -9.34859862203909602e-05
  6 -3.28161597009001297e-03
  7  1.83722327921238849e-05
  8 -3.69572790079737804e-05
  9  3.44122370011206553e-04
 10 -3.53342737068074793e-04
 11  2.99026182572370992e-04
 12  4.58901323501110065e-06
 13  4.63101504838227385e-05
 14 -3.58187161742862584e-04
 15 -2.32644699713096360e-04
 16  1.41263882775933739e-04
 17 -6.09039233761116171e-04
 18 -1.16416288592190162e-04
 19  1.95421686586023198e-03
 20  7.68165963921284360e-05
 21  1.39916949740462917e-04
 22 -2.90316791184402150e-05
 23 -3.63315031073533734e-04
 24  1.52866441312765882e-04
 25 -4.29246032250733649e-04
 26 -1.18738317203889485e-01
 27 -9.82875141166082433e-02
 28  2.52354143629932868e-05
 29  2.49507830472666291e-05
 30 -2.02106111982127638e-04
 31 -1.39459748308174889e-03
 32 -1.89597564811895124e-04
 33 -1.72355255614603220e-05
 34 -1.13147218642827143e-04
 35  1.08162580043126306e-03
 36  5.39247738739006615e-06
 37 -6.04142973174960536e-06
 38  3.30175668253571987e-04
 39 -5.58415385283096835e-05
 40 -1.20565165468090329e-04
 41 -1.72476419028763043e-05
 42  9.88889880926492788e-05
 43  4.35227420450878593e-05
 44 -1.63108527980076372e-03
 45 -1.85028638524617869e-04
 46 -4.51331157684200135e-05
 47 -7.31414838292788376e-04
 48 -9.72191232514181238e-05
 49  3.52592737369955366e-05
 50 -4.75021681733110316e-05
 51  5.79771646013072114e-04
 52  5.02477563320190279e-04
 53 -1.48603916028351744e-05
 54 -1.51393682277764568e-06
 55  4.91861191960784984e-06
 56 -7.49538385629344489e-05
 57 -1.52009267472675587e-04
 58 -1.79125846909488526e-05
 59 -1.03063370962608876e-05
 60 -5.07120713005698547e-04
 61 -5.18744997196697835e-05
 62 -3.51300942470204162e-05
 63 -2.82672919451679974e-04
 64  4.36513247604630348e-05
 65 -4.15646027250298559e-05
 66 -7.09643338179440023e-06
 67 -2.97549221923989690e-05
 68 -4.60491194931387715e-06
 69  2.85766420138672782e-03
 70 -5.30172179826794167e-04
 71 -1.71187048862561057e-05
 72  7.63575690170131501e-04
 73  4.86903228346748722e-07
 74 -3.23632071935823611e-05
 75 -9.26772037809945004e-05
 76 -5.75925052527811910e-06
 77  1.79985690316155074e-06
 78  7.19943388922175625e-06
 79 -1.43583766677430636e-07
 80 -2.05020900869532251e-06
 81 -4.24222973712234518e-05
 82 -1.84234242637960578e-05
 83  3.42730560594791467e-06
 84  2.18130685755579885e-05
 85  4.18274766235796763e-04
 86  2.69794228626167652e-04
 87  3.26133937619211956e-05
 88 -9.15297735731386217e-05
 89 -1.05605224661638745e-05
 90  4.90720712876677554e-06
 91 -2.04311230861240328e-06
 92 -1.62679491127896289e-07
 93  3.33947698492686909e-06
 94 -1.41144763599517224e-03
 95 -1.72548385371844342e-04
 96  9.67993871910552927e-05
 97  1.09819664402968837e-03
 98 -7.97945500075111391e-06
 99  3.19210372965889280e-05
100  6.91840250514753056e-05
101  1.21729980755225008e-05
102  1.53530793671017310e-05
103  1.32673024442244298e-05
104 -7.85425667408020013e-06
105 -5.74051762534243786e-06
106  9.62508459519408542e-06
107 -5.52664445207188748e-05
108  3.56966679542375465e-05
109  1.88823441361076787e-05
110 -3.80608379598550346e-04
111 -1.14256583114367486e-04
112 -3.96408880404448363e-05
113  3.85109124067578560e-05
114  2.01271782836037196e-05
115  4.35470686078165630e-06
116 -8.91517405889973144e-06
117 -1.52590772943909982e-05
118  2.44396886934618485e-05
119 -2.37181042246189285e-04
120  6.63476901519346779e-04
121  1.72608922758333378e-04
122  1.95195001727663535e-04
123 -9.32697141071489334e-06
124  7.48095663519425248e-05
125  1.77145163017346860e-05
126 -6.35885845323340349e-06
127 -5.85836340219819015e-06
128  8.49092189927900170e-05
129 -1.09229077987392682e-02
130 -8.97649158410476766e-03
131 -4.38103383307046683e-05
132 -3.48331511666243266e-05
133  1.07080028778226314e-04
134 -4.24954543489882179e-04
135 -1.65141095564466954e-04
136 -4.95506160978920890e-05
137  2.66531797738222187e-04
138  5.70111677959054338e-04
139 -4.00340706060702356e-05
140  1.38105124388193911e-04
141 -1.35220806172589293e-04
142 -9.37946761817420719e-05
143  1.05859374174933080e-04
144  3.76516782402349124e-05
145  4.27265712166579489e-05
146 -3.02060311570887889e-05
147 -1.75325965099644692e-03
148  5.04910244932916060e-05
149 -3.69248025395079783e-04
150  1.39464655790903113e-04
151  5.99231426217552265e-06
152 -4.04020752122828236e-05
153  1.00600764375381694e-04
154 -5.59281779787141153e-06
155 -1.11041685431598371e-04
156  1.76547459907182611e-04
 Sym= A
 Ene= -1.14322391590427213e+01
 Spin= Alpha
 Occup=  1.00000000000000000e+00
  1  1.19003476176494732e-01
  2  9.85775270848698038e-02
  3  1.25719211001611901e-04
  4 -2.42581494869803102e-05
  5  2.90685618874506112e-04
  6  5.28656440656045793e-04
  7 -1.25994376500916801e-04
  8  1.80910879870587909e-05
  9 -3.47214277127266217e-04
 10 -2.72292696537730096e-04
 11  2.99827382152750756e-04
 12 -1.27456563350855058e-05
 13  1.76942963532646005e-04
 14  1.84787528401493653e-04
 15  1.40575020503342393e-04
 16 -4.69474479893821253e-05
 17  2.10411013774580111e-04
 18  3.81271041782223666e-05
 19  2.86517856757057552e-03
 20 -3.39554728691279241e-04
 21  7.71082635176719382e-05
 22 -3.71969243142020449e-04
 23  9.66801111344242842e-05
 24 -4.93127216313024212e-05
 25 -1.10554217343139931e-04
 26 -5.50488155866466933e-01
 27 -4.55976036645053207e-01
 28  6.94762569122595540e-04
 29  7.63383242192207525e-05
 30  7.06783154876158121e-05
 31 -5.09009472682542784e-03
 32 -7.22386299757016943e-04
 33 -3.62989679217005641e-05
 34 -5.04931948448793374e-04
 35  1.82597444585214596e-03
 36 -6.61213132672059848e-05
 37 -4.86673507633078172e-05
 38  5.68231970746053733e-04
 39 -3.06746385451279828e-04
 40 -2.67426809751726091e-04
 41  2.04549976800246756e-05
 42 -2.00352480081470904e-05
 43  3.68509936351399552e-05
 44 -3.95564352267642819e-03
 45  6.54775612002505739e-05
 46  1.02245762114216252e-04
 47 -1.26435109182401013e-03
 48 -3.96534262788542427e-04
 49  1.91139702088692306e-04
 50 -3.10773586161140107e-04
 51  2.59834815029453409e-03
 52  2.23630296110096955e-03
 53 -1.52284009696549506e-04
 54 -2.26425624826205032e-05
 55 -1.00553412537114964e-05
 56 -3.23368550696135975e-04
 57 -4.37510390379546564e-04
 58 -6.23640898887748509e-05
 59  4.54122595238385681e-05
 60 -9.09244232384184619e-04
 61 -2.70332858591158754e-04
 62 -7.60187023797025526e-05
 63 -6.16058405808653882e-04
 64  1.59025799045301689e-04
 65 -4.27669937078229535e-05
 66 -8.74548845504008383e-06
 67 -1.04868597673980172e-04
 68 -2.72319115307799922e-05
 69  3.59289530457095833e-03
 70 -2.82895566084322451e-04
 71 -5.11020304054085982e-05
 72  7.98841209280427953e-04
 73  3.30390674308189944e-06
 74 -8.62236169991912856e-05
 75 -2.11636853015478908e-04
 76 -9.94718558489385231e-06
 77  1.12920392820219056e-06
 78  5.44390309971378789e-06
 79 -4.27436016067750481e-06
 80 -9.73257070773490139e-06
 81 -7.00858798172257648e-05
 82 -1.41847829141834197e-05
 83  2.49581555177881147e-05
 84  5.69964640367534139e-05
 85  7.75295677948989763e-04
 86  4.35696047151837946e-04
 87  3.20165139097579424e-05
 88 -4.96842483092261477e-05
 89 -2.96898153892923201e-06