[Molden Format]
[Atoms] (AU)
C    1    6         2.674339352612       0.165952383113      -0.194478460003
H    2    1         4.696468756380       0.431127150414      -0.059281190058
C    3    6         1.361478335750       0.243835370266      -2.347028102226
H    4    1         2.314527002872       0.639502474174      -4.115569058884
C    5    6        -1.361478248634      -0.243835521633      -2.347028057628
H    6    1        -2.314527009864      -0.639502619116      -4.115568975358
C    7    6        -2.674339318219      -0.165952220597      -0.194478461326
H    8    1        -4.696468717452      -0.431126958040      -0.059281149240
C    9    6        -1.309901954059       0.490612928269       2.198212914587
H   10    1        -1.257269329980       2.492746154223       2.413534157646
H   11    1        -2.293233780350      -0.216766239337       3.792386996332
C   12    6         1.309901914563      -0.490612881026       2.198212900792
H   13    1         1.257269240218      -2.492746137782       2.413533902722
H   14    1         2.293233756162       0.216766117261       3.792387058504
[GTO]
  1 0
 s    6  1.00
     4563.2400000000         0.0019666500
      682.0240000000         0.0152306000
      154.9730000000         0.0761269000
       44.4553000000         0.2608010000
       13.0290000000         0.6164620000
        1.8277300000         0.2210060000
 s    3  1.00
       20.9642000000         0.1146600000
        4.8033100000         0.9199990000
        1.4593300000        -0.0030306800
 p    3  1.00
       20.9642000000         0.0402487000
        4.8033100000         0.2375940000
        1.4593300000         0.8158540000
 s    1  1.00
        0.4834560000         1.0000000000
 p    1  1.00
        0.4834560000         1.0000000000
 s    1  1.00
        0.1455850000         1.0000000000
 p    1  1.00
        0.1455850000         1.0000000000
 d    1  1.00
        0.6260000000         1.0000000000
 s    1  1.00
        0.0438000000         1.0000000000
 p    1  1.00
        0.0438000000         1.0000000000

  2 0
 s    3  1.00
       33.8650000000         0.0254938000
        5.0947900000         0.1903730000
        1.1587900000         0.8521610000
 s    1  1.00
        0.3258400000         1.0000000000
 s    1  1.00
        0.1027410000         1.0000000000

  3 0
 s    6  1.00
     4563.2400000000         0.0019666500
      682.0240000000         0.0152306000
      154.9730000000         0.0761269000
       44.4553000000         0.2608010000
       13.0290000000         0.6164620000
        1.8277300000         0.2210060000
 s    3  1.00
       20.9642000000         0.1146600000
        4.8033100000         0.9199990000
        1.4593300000        -0.0030306800
 p    3  1.00
       20.9642000000         0.0402487000
        4.8033100000         0.2375940000
        1.4593300000         0.8158540000
 s    1  1.00
        0.4834560000         1.0000000000
 p    1  1.00
        0.4834560000         1.0000000000
 s    1  1.00
        0.1455850000         1.0000000000
 p    1  1.00
        0.1455850000         1.0000000000
 d    1  1.00
        0.6260000000         1.0000000000
 s    1  1.00
        0.0438000000         1.0000000000
 p    1  1.00
        0.0438000000         1.0000000000

  4 0
 s    3  1.00
       33.8650000000         0.0254938000
        5.0947900000         0.1903730000
        1.1587900000         0.8521610000
 s    1  1.00
        0.3258400000         1.0000000000
 s    1  1.00
        0.1027410000         1.0000000000

  5 0
 s    6  1.00
     4563.2400000000         0.0019666500
      682.0240000000         0.0152306000
      154.9730000000         0.0761269000
       44.4553000000         0.2608010000
       13.0290000000         0.6164620000
        1.8277300000         0.2210060000
 s    3  1.00
       20.9642000000         0.1146600000
        4.8033100000         0.9199990000
        1.4593300000        -0.0030306800
 p    3  1.00
       20.9642000000         0.0402487000
        4.8033100000         0.2375940000
        1.4593300000         0.8158540000
 s    1  1.00
        0.4834560000         1.0000000000
 p    1  1.00
        0.4834560000         1.0000000000
 s    1  1.00
        0.1455850000         1.0000000000
 p    1  1.00
        0.1455850000         1.0000000000
 d    1  1.00
        0.6260000000         1.0000000000
 s    1  1.00
        0.0438000000         1.0000000000
 p    1  1.00
        0.0438000000         1.0000000000

  6 0
 s    3  1.00
       33.8650000000         0.0254938000
        5.0947900000         0.1903730000
        1.1587900000         0.8521610000
 s    1  1.00
        0.3258400000         1.0000000000
 s    1  1.00
        0.1027410000         1.0000000000

  7 0
 s    6  1.00
     4563.2400000000         0.0019666500
      682.0240000000         0.0152306000
      154.9730000000         0.0761269000
       44.4553000000         0.2608010000
       13.0290000000         0.6164620000
        1.8277300000         0.2210060000
 s    3  1.00
       20.9642000000         0.1146600000
        4.8033100000         0.9199990000
        1.4593300000        -0.0030306800
 p    3  1.00
       20.9642000000         0.0402487000
        4.8033100000         0.2375940000
        1.4593300000         0.8158540000
 s    1  1.00
        0.4834560000         1.0000000000
 p    1  1.00
        0.4834560000         1.0000000000
 s    1  1.00
        0.1455850000         1.0000000000
 p    1  1.00
        0.1455850000         1.0000000000
 d    1  1.00
        0.6260000000         1.0000000000
 s    1  1.00
        0.0438000000         1.0000000000
 p    1  1.00
        0.0438000000         1.0000000000

  8 0
 s    3  1.00
       33.8650000000         0.0254938000
        5.0947900000         0.1903730000
        1.1587900000         0.8521610000
 s    1  1.00
        0.3258400000         1.0000000000
 s    1  1.00
        0.1027410000         1.0000000000

  9 0
 s    6  1.00
     4563.2400000000         0.0019666500
      682.0240000000         0.0152306000
      154.9730000000         0.0761269000
       44.4553000000         0.2608010000
       13.0290000000         0.6164620000
        1.8277300000         0.2210060000
 s    3  1.00
       20.9642000000         0.1146600000
        4.8033100000         0.9199990000
        1.4593300000        -0.0030306800
 p    3  1.00
       20.9642000000         0.0402487000
        4.8033100000         0.2375940000
        1.4593300000         0.8158540000
 s    1  1.00
        0.4834560000         1.0000000000
 p    1  1.00
        0.4834560000         1.0000000000
 s    1  1.00
        0.1455850000         1.0000000000
 p    1  1.00
        0.1455850000         1.0000000000
 d    1  1.00
        0.6260000000         1.0000000000
 s    1  1.00
        0.0438000000         1.0000000000
 p    1  1.00
        0.0438000000         1.0000000000

  10 0
 s    3  1.00
       33.8650000000         0.0254938000
        5.0947900000         0.1903730000
        1.1587900000         0.8521610000
 s    1  1.00
        0.3258400000         1.0000000000
 s    1  1.00
        0.1027410000         1.0000000000

  11 0
 s    3  1.00
       33.8650000000         0.0254938000
        5.0947900000         0.1903730000
        1.1587900000         0.8521610000
 s    1  1.00
        0.3258400000         1.0000000000
 s    1  1.00
        0.1027410000         1.0000000000

  12 0
 s    6  1.00
     4563.2400000000         0.0019666500
      682.0240000000         0.0152306000
      154.9730000000         0.0761269000
       44.4553000000         0.2608010000
       13.0290000000         0.6164620000
        1.8277300000         0.2210060000
 s    3  1.00
       20.9642000000         0.1146600000
        4.8033100000         0.9199990000
        1.4593300000        -0.0030306800
 p    3  1.00
       20.9642000000         0.0402487000
        4.8033100000         0.2375940000
        1.4593300000         0.8158540000
 s    1  1.00
        0.4834560000         1.0000000000
 p    1  1.00
        0.4834560000         1.0000000000
 s    1  1.00
        0.1455850000         1.0000000000
 p    1  1.00
        0.1455850000         1.0000000000
 d    1  1.00
        0.6260000000         1.0000000000
 s    1  1.00
        0.0438000000         1.0000000000
 p    1  1.00
        0.0438000000         1.0000000000

  13 0
 s    3  1.00
       33.8650000000         0.0254938000
        5.0947900000         0.1903730000
        1.1587900000         0.8521610000
 s    1  1.00
        0.3258400000         1.0000000000
 s    1  1.00
        0.1027410000         1.0000000000

  14 0
 s    3  1.00
       33.8650000000         0.0254938000
        5.0947900000         0.1903730000
        1.1587900000         0.8521610000
 s    1  1.00
        0.3258400000         1.0000000000
 s    1  1.00
        0.1027410000         1.0000000000

[5D]
[9G]

[MO]
 Sym= A
 Ene= -1.22376852453544185e+01
 Spin= Alpha
 Occup=  1.00000000000000000e+00
  1  4.51197257439729199e-05
  2 -2.44993213296135518e-04
  3  4.71610561923494571e-04
  4  2.75609039002431124e-04
  5 -1.37794752163525346e-03
  6  4.02372445987414116e-04
  7 -1.01830622418904479e-03
  8 -9.73761795849369550e-04
  9  5.64552777294292582e-03
 10 -1.46077342233784744e-02
 11  7.91338775427544161e-03
 12  2.08510062502374532e-03
 13 -6.94342961465840586e-03
 14  1.01088058834686778e-03
 15 -3.14229594124859710e-03
 16 -9.66798981303052538e-04
 17  1.92788294583393958e-05
 18  4.60471362477434410e-04
 19 -4.68725896732552355e-02
 20  9.01123166251017495e-03
 21  1.75854897157529111e-03
 22  5.82680296896227311e-03
 23  4.72824362750116130e-04
 24 -3.27156624752807860e-04
 25 -2.06684629161645473e-03
 26  4.77255801231857104e-05
 27 -2.53588736189941431e-04
 28 -2.38306870341816119e-04
 29  3.54030520660162659e-05
 30 -2.03628037187498085e-04
 31  1.44427620895437223e-03
 32  1.62835654385146155e-03
 33 -2.67818898956046717e-04
 34  2.44723619807755977e-03
 35  6.60880112385671750e-03
 36 -4.48151915474217372e-03
 37 -5.15085767739326193e-04
 38  2.98773782801744396e-03
 39  7.02805377979393584e-04
 40  1.10864762761145666e-03
 41  1.33526529400070164e-04
 42 -1.88546931240737836e-04
 43 -3.14407764067952788e-04
 44  5.83720968175854629e-02
 45 -2.24318005834586416e-03
 46 -2.36596803292343869e-03
 47  8.62348175243181705e-03
 48  1.42033124670653914e-04
 49  1.07241235699231463e-03
 50 -8.03351638998460156e-04
 51  2.96889096942159666e-05
 52 -1.83285998550568476e-04
 53 -1.14990858408903484e-04
 54  5.59878099404259098e-05
 55 -6.88544264072856626e-05
 56  1.44745805569288324e-03
 57  6.86807773899860644e-04
 58 -1.61101669776596789e-04
 59  6.70353704224801788e-04
 60 -7.13781510735969627e-03
 61 -3.30152800935307796e-03
 62 -5.81532423549199350e-04
 63 -4.21454301940695549e-03
 64 -1.70855382540862515e-04
 65 -1.35708985945529818e-05
 66 -6.27829351575569566e-06
 67 -9.09703271247093784e-05
 68  9.26619785213926567e-05
 69 -2.19688422546270787e-02
 70 -8.51764769946673425e-03
 71 -4.59218652343948289e-04
 72 -2.87234942945392702e-03
 73  2.19476074248091207e-04
 74 -7.72356128702541222e-04
 75 -1.68613088183737947e-03
 76  2.95129688119968754e-05
 77 -1.70964663278775692e-04
 78 -2.08745696173105445e-05
 79 -5.95027199699130950e-05
 80 -2.22997211639126667e-04
 81  1.06434605679397217e-03
 82  6.40639511715127659e-04
 83  2.29673538894238242e-04
 84  1.13411499852490304e-03
 85  2.56399283919451918e-03
 86  4.61491243481447098e-04
 87  1.36708974083517791e-04
 88 -1.43989955619683264e-03
 89  4.98094775754838763e-04
 90  3.81432964688983172e-04
 91  6.90620856030086874e-05
 92 -3.96549696104884944e-04
 93  4.54763711377358180e-04
 94  2.29638878658650729e-02
 95  3.85920530982235060e-03
 96  5.58078895156532604e-04
 97  8.85708445856942146e-03
 98  1.72972352748573756e-04
 99  1.15638468034267165e-04
100 -9.89083144340729015e-04
101  7.69675322719788087e-05
102 -3.99170468253644045e-04
103 -1.29170043238651939e-03
104  4.59427205081578121e-04
105 -1.26457465748102532e-04
106  1.00571732518083424e-03
107  4.56355586264838280e-03
108 -1.57611341103476490e-03
109  6.34776763901093513e-04
110 -1.15991844097042881e-02
111 -6.29060536673829631e-03
112  3.03850828250857392e-03
113 -9.48052496425914274e-04
114 -1.68284123756887193e-03
115 -3.70230504403033377e-04
116 -1.21886136257177665e-04
117  2.20154195644406284e-03
118 -1.99370422337135939e-03
119 -3.58957928784479560e-02
120  2.35834875594853870e-03
121  5.15235796493757232e-03
122  5.38012154612332958e-03
123  5.87113796583858447e-04
124  4.00574307391178650e-04
125 -1.22330605447189744e-03
126  3.69586610060199387e-04
127  1.01415440971102809e-03
128  8.70846754605306725e-04
129  6.11596493944343678e-01
130  4.28652591077295864e-01
131 -4.46758996914266803e-04
132  3.95808122280911405e-04
133 -9.34301764827211558e-04
134 -3.71505890026942870e-02
135  2.17361961610474264e-03
136 -2.17190259183327366e-03
137  3.47374878534095939e-03
138  5.23644143681474064e-02
139 -2.69365041505476932e-03
140  1.81527576402183461e-03
141 -5.48559999947536084e-03
142  2.69894423471770137e-05
143  1.22128342935278866e-03
144  5.05404351304061025e-04
145 -1.41559033430279984e-03
146  6.37354582627705979e-04
147  2.91095685460603902e-02
148 -3.53224689950935866e-03
149 -1.36038522480870895e-03
150 -2.81854547609700122e-03
151  9.40931073942743090e-04
152 -3.07941448277939409e-03
153 -9.33171418729341479e-03
154  7.71060947400336628e-04
155 -2.25770504289794392e-03
156 -7.72572478497918561e-03
 Sym= A
 Ene= -1.06103813369868867e+01
 Spin= Alpha
 Occup=  1.00000000000000000e+00
  1  3.66698158629971986e-03
  2  3.33813518839038174e-03
  3 -3.11623674668972620e-04
  4  3.69334783394703625e-05
  5 -6.33895337780491608e-04
  6 -9.25295840911287892e-04
  7  1.60441025585872062e-03
  8 -1.85526550635511239e-04
  9  3.28486133216794552e-03
 10  1.07194771002991785e-03
 11 -1.90355734483810594e-03
 12 -7.05273011189748856e-05
 13 -8.15458280497985324e-04
 14 -1.05215840119645397e-03
 15 -1.57130127906839881e-03
 16  3.96847134263926844e-05
 17 -3.91286261540516695e-04
 18  9.70155822206967086e-05
 19 -1.28841132176101200e-02
 20  1.62625190811493329e-03
 21  2.84168983325801312e-05
 22 -1.03119904678458001e-04
 23 -1.88999107378667587e-04
 24  1.02757246043635111e-04
 25  1.25756849052879134e-03
 26  5.66207015260999036e-01
 27  4.61138775690118075e-01
 28 -1.75813616276895542e-04
 29  3.53295027270450653e-05
 30  5.44007015494968479e-05
 31  1.43395922398431297e-02
 32  7.19318991748688638e-04
 33 -2.80284081767086051e-04
 34  2.70732359992263217e-03
 35 -1.09937874608395884e-02
 36  1.69698984438336475e-03
 37  5.27961219313115055e-04
 38 -2.67651404578123607e-03
 39  7.37190484289649271e-04
 40  1.29902773415787589e-03
 41 -1.02545467593234167e-04
 42  8.47385309238950831e-04
 43  1.27783183148352515e-04
 44  1.80246778982327445e-02
 45 -2.36269241483935471e-03
 46 -8.51903591012029456e-04
 47  4.18536910135842814e-03
 48  2.79942755233552058e-04
 49 -8.11633301516313625e-04
 50  9.71140855292276350e-04
 51  5.94449123678080383e-03
 52  4.89602371857170929e-03
 53  4.81787624145120367e-04
 54  7.02631063880375546e-05
 55 -6.90613470441584745e-05
 56  2.20515193431423614e-04
 57 -1.46270552700305027e-03
 58 -1.73800345780335350e-04
 59  4.90691876564638171e-04
 60  3.69114601677970194e-03
 61  2.09013415664381945e-03
 62  4.89480121171638081e-04
 63  2.02672576298908776e-03
 64  5.95163020364627851e-04
 65 -1.43901678325863188e-04
 66  7.91966496272299988e-05
 67 -6.26981721347884507e-04
 68 -2.94555751442857213e-04
 69 -1.56076367294588764e-02
 70 -5.85619127473163323e-04
 71  9.48866778068594124e-05
 72 -1.86532362604260068e-03
 73 -1.26521490004526067e-04
 74  2.68019610655316173e-04
 75  1.27097998515152740e-03
 76 -1.12215955932448635e-05
 77  5.44296031909811484e-05
 78  3.46665025212702520e-05
 79  1.18636656384220703e-05
 80 -7.96184329030587870e-05
 81 -2.46031633120450560e-04
 82 -4.09857549310391461e-04
 83 -4.34897578332842615e-05
 84  6.32846353507648561e-04
 85 -2.87052941558444547e-03
 86 -1.45368329526381502e-03
 87 -2.19356302845435665e-04
 88 -2.98673776927341314e-04
 89 -1.27374544011968696e-04
 90  3.22481488779610540e-04
 91  2.76611823462458755e-05
 92  2.82849439799252399e-06
 93  2.63841360534068119e-05
 94  2.75248841179719095e-03
 95  6.02697124425542589e-04
 96 -5.19241104809234897e-04
 97 -3.07981121081731847e-03
 98 -2.70214623534042343e-05
 99 -2.11521626426313677e-04
100  1.10011396993962349e-04
101 -2.84835167201323512e-05
102  3.55322249040186379e-05
103 -2.56723410648320986e-06
104 -1.12713296501583221e-05
105 -4.61664407060056073e-06
106 -4.59533123819098183e-04
107 -6.46828030729729099e-05
108  8.18388354344550255e-05
109  1.14591163048436529e-04
110  2.75543873336775305e-03
111  4.81070237425326199e-04
112  2.59526711778869550e-05
113 -7.72530717376505643e-04
114  2.73958173135013435e-05
115 -7.38563558699932018e-05
116 -1.30390737228194446e-05
117 -6.08324453581890291e-06
118  2.61874320109641235e-05
119 -2.16226014538773792e-03
120 -2.80749214430961718e-03
121 -2.41006102183707638e-04
122 -4.56146280241095134e-04
123  6.28383502151465799e-05
124 -5.34947463746062628e-04
125  3.25951579751260925e-05
126 -2.33304696260953550e-05
127 -1.19324317613832260e-04
128  9.22441418386862563e-05
129 -1.02429034994574477e-05
130  5.95005709239857707e-05
131  6.31590234176565362e-05
132  1.06385617913555506e-05
133 -8.33893939131958418e-05
134 -2.33282508854256603e-04
135 -2.92270298050893338e-04
136 -9.90107967913255349e-05
137  5.23417815992641166e-04
138 -1.49411282464780634e-03
139  4.85139914075158384e-04
140 -7.38097567224190094e-04
141  3.71771053831760489e-05
142 -1.70792020643356098e-04
143  3.07132899580974869e-04
144  1.32618740682730491e-04
145  3.29217212195089451e-05
146 -2.41980289704191908e-05
147  1.04053200839012722e-02
148 -7.47302936881677959e-04
149  1.47234262056679106e-03
150 -9.81327828016320160e-04
151  2.27849473289118021e-05
152 -1.71805706908525151e-04
153 -6.10664555583580030e-04
154 -1.11489579037808156e-04
155  2.46630453379128038e-04
156 -1.92391011182616880e-04
 Sym= A
 Ene= -1.05945998073069010e+01
 Spin= Alpha
 Occup=  1.00000000000000000e+00
  1  1.26169715672955663e-04
  2  4.41078469093836699e-05
  3  3.06303312841391082e-05
  4  1.33066031529059426e-05
  5  6.96600841678404834e-05
  6  2.37420813124755367e-04
  7 -3.98241798609449645e-04
  8 -5.02302924691357681e-05
  9 -5.92885984481317783e-04
 10  3.11582080704727801e-03
 11 -1.60800561258936012e-03
 12 -2.35287154063079282e-04
 13  2.99780398411160433e-04
 14  1.09253860222998755e-04
 15  3.03064574023926669e-04
 16  2.92305218184830087e-05
 17 -1.12503842012764322e-05
 18 -2.54237670733860318e-05
 19 -3.41570668463882709e-03
 20  7.09677615534297498e-04
 21 -5.44148225603852381e-04
 22  3.21606800490995904e-03
 23  2.38988419830765702e-05
 24  2.27810377500442421e-04
 25 -8.05527058867117778e-05
 26  6.00222900835373479e-03
 27  4.84010978841208517e-03
 28  4.95587343513935637e-04
 29  7.35666182558204339e-05
 30  7.35939608073299899e-05
 31  8.81957038067961326e-05
 32 -1.49071351740132346e-03
 33 -1.82250053686617257e-04
 34 -4.53706599936574495e-04
 35 -4.26440503124875768e-03
 36  2.28393697834155954e-03
 37  5.34404462516773512e-04
 38 -2.25210288626981857e-03
 39 -6.06374641705378632e-04
 40 -1.21538736518371032e-04
 41  8.08826925865274515e-05
 42  6.63526336958090881e-04
 43  3.05865649426950476e-04
 44  1.70275769506879268e-02
 45 -7.03171066868183564e-04
 46  8.29860084097801639e-05
 47  2.10104636152987122e-03
 48  1.39528471546083657e-04
 49 -3.06428913880550798e-04
 50 -1.33528458788042593e-03
 51 -5.65744367384335090e-01
 52 -4.61412076369278390e-01
 53 -2.61458022135998874e-04
 54  7.25611979282863353e-05
 55 -2.65455864447106106e-05
 56 -1.50494474858517691e-02
 57  7.90360465367573838e-04
 58 -3.13592550354409359e-04
 59 -2.86121907828708159e-03
 60  1.18858645233323942e-02
 61  1.83131083616315418e-03
 62  5.91632398317224720e-04
 63  2.96117863673001601e-03
 64 -7.39311966706721274e-04
 65  1.36424002599014283e-03
 66 -9.20828086010288708e-05
 67 -8.41214259697913957e-04
 68 -1.16097569573388179e-04
 69 -1.97882930435390111e-02
 70 -2.44227485813505556e-03
 71 -9.06786087271847546e-04
 72 -4.53067227532544161e-03
 73 -2.92926721863017380e-04
 74  8.43522667473504614e-04
 75 -9.56002962249083757e-04
 76 -4.00859537304364306e-03
 77 -3.63335812415088591e-03
 78 -3.20411023465987067e-04
 79  4.05120067065498063e-05
 80  6.67869601531264874e-04
 81  9.83924362616282440e-04
 82  1.68200896225953619e-03
 83 -1.95336684198671082e-04
 84 -3.45307472018607830e-03
 85 -1.33619230884322567e-03
 86 -2.08367545339539903e-03
 87 -8.21645440223577018e-05
 88  8.96848750494283584e-04
 89  1.10507000193139525e-03
 90 -1.65516263905036922e-03
 91  3.79621711226200888e-05
 92  4.07322411870836754e-04
 93 -1.04011120611586735e-04
 94  1.38781119482709291e-02
 95  1.74700457453409817e-03
 96  1.26468393587403377e-05
 97 -8.54888155771799341e-05
 98  1.99466977053455209e-04
 99 -1.10459794358952417e-04
100 -1.33716232898876443e-03
101  3.73055714808747239e-05
102 -4.15343051889072734e-05
103  6.60348566413136284e-05
104  1.12211077688900980e-05
105  8.90715899139571621e-05
106  2.36787709002147975e-04
107 -3.12284132157634791e-04
108 -1.03392143604389599e-04
109 -5.55657613559433061e-04
110  1.66256195179836073e-03
111  5.28156289097786403e-04
112 -7.79275727151485247e-04
113 -5.55141747862467730e-05
114  1.82598220196908466e-04
115  3.23643034256086281e-04
116  1.40133064428727539e-04
117 -3.57363999135727550e-05
118  2.68301067438928545e-05
119 -1.09397390272002494e-02
120 -8.91304204359642371e-04
121  1.52840567018400621e-03
122  1.01019119768997563e-03
123 -2.29921715183198406e-05
124  1.70283993743628804e-04
125  6.39015204253185593e-04
126  1.17296485583499012e-04
127 -2.62844315001414146e-04
128  1.88154615900896691e-04
129  9.07723979246552298e-06
130 -5.24340291551110102e-05
131 -6.05662988644564304e-07
132 -1.21001285028861098e-05
133  2.80045467177828152e-06
134  4.84576993723700620e-04
135 -7.87265210030698066e-05
136  8.56072833996716182e-05
137 -1.09153314740115619e-04
138 -2.98022647100023479e-03
139  5.21888853531045404e-04
140 -1.60563539012758278e-07
141  8.29859755809814648e-04
142 -3.42959119429255352e-05
143 -7.01840172767573132e-05
144 -1.03164346924316549e-05
145  7.66381003062578748e-06
146 -2.85598189689712748e-05
147  2.71329564101333758e-03
148 -2.96699382212487752e-03
149 -1.94389218004950706e-04
150  4.22329276879940458e-04
151 -6.61500699115467211e-05
152  5.62319892547536457e-04
153 -6.08051483544068077e-05
154  2.16537037128795444e-05
155  1.36151272080301829e-04
156 -1.14069015838976379e-04
 Sym= A
 Ene= -1.05471298873888060e+01
 Spin= Alpha
 Occup=  1.00000000000000000e+00
  1 -5.63317829347713572e-01
  2 -4.63056298045421921e-01
  3  2.54438170291881513e-04
  4  1.57484816456680989e-04
  5 -9.20280326232016544e-04
  6 -1.83677306526917085e-02
  7  2.65369779092525021e-03
  8 -1.46893172312061420e-05
  9  3.51598097821376404e-03
 10  1.39459873778914733e-02
 11 -3.49842362125105978e-03
 12 -7.21307912429861725e-04
 13 -6.52617607566721518e-04
 14 -1.49696989784839580e-03
 15 -1.59311113339142760e-03
 16  1.44259767243923358e-04
 17 -5.17534595675754648e-04
 18  3.54776039406122008e-05
 19 -1.45262718180679991e-02
 20  3.88896123854311649e-03
 21  1.29435583209068007e-03
 22  3.37933084143618489e-03
 23 -2.45220254985282495e-04
 24  8.30473404156811617e-04
 25 -1.37783014542573723e-03
 26  3.90833038985736840e-03
 27  2.73563877377212133e-03
 28 -6.00866242690953735e-04
 29  1.17399477735235346e-05
 30 -7.44082539038727034e-04
 31  1.64654502892785134e-03
 32  3.28184483184435719e-03
 33 -6.67324778704659873e-05
 34  4.20546289444373271e-03
 35 -1.29822556768639666e-03
 36 -5.70200674351467661e-04
 37  4.75563116706702435e-04
 38 -2.82091177814371196e-03
 39  1.75363168398902174e-03
 40  2.11814201819471694e-03
 41 -9.05016798560794120e-05
 42  2.95806774475015119e-04
 43 -2.18548947381220127e-04
 44  9.35566094747322489e-03
 45  2.53987886354884286e-03
 46 -4.34486860662509726e-04
 47  6.67798746855923831e-04
 48  2.85294719337842503e-04
 49 -1.65220805766528716e-04
 50 -1.51881693474891877e-03
 51 -7.37809410451233246e-05
 52 -1.38127108254644954e-04
 53 -2.05686934538529877e-04
 54 -3.40069881216971219e-05
 55  9.44780888658965063e-05
 56  3.48408865602004437e-04
 57  1.34669155003645335e-03
 58  1.93853114384819828e-04
 59 -4.67614207740556242e-04
 60 -1.06872453113140194e-03
 61 -5.42184011078190582e-04
 62 -2.93792070228386442e-04
 63 -2.60842162732342420e-04
 64 -6.31364248678923084e-04
 65  1.77116510844780217e-04
 66  3.13218686668719954e-05
 67  3.33126940833843390e-04
 68  1.39130297745267953e-04
 69  1.75343875187571469e-02
 70 -2.53872481724466866e-03
 71 -3.51345243580873046e-05
 72  3.45845551016832906e-03
 73  7.57520818765482684e-05
 74  8.20794545169289204e-05
 75 -8.37995948009562144e-04
 76  2.93407372352208289e-04
 77  1.76801533187361616e-04
 78 -1.95430024405477325e-05
 79 -1.58293946047684960e-06
 80  4.07787811159201769e-05
 81  2.58571065580612692e-04
 82  3.41377239037148061e-04
 83  2.99820696392765608e-07
 84 -4.61850122102702601e-04
 85  1.17368580771838853e-03
 86  1.17996985948529707e-03
 87  3.74563038042145943e-04
 88 -1.77759001498037307e-04
 89  1.04993111911160124e-04
 90 -2.38299968390887800e-04
 91  5.81844982279124760e-05
 92  5.26465524177599263e-06
 93 -7.27706259042076128e-06
 94 -5.30209991605437754e-03
 95 -7.58344703492563887e-04
 96  9.57181347007894298e-04
 97  6.61230347742362400e-03
 98  1.23634826361091584e-05
 99  2.89922424129390049e-04
100  1.08725857902341249e-04
101  5.12519447425974475e-05
102 -2.61905183419094658e-05
103 -5.38833644849120048e-05
104 -7.76896225070135994e-06
105 -1.56224044832543724e-05
106  4.92121001424654760e-04
107  3.69580022285230243e-04
108 -3.09185855802330710e-05
109 -4.42419819027372785e-05
110 -1.17976765360879293e-03
111 -9.76903572764763672e-04
112 -1.13861922087259040e-03
113  7.87041562590605221e-04
114 -9.92936447614565457e-05
115  1.20948266017903446e-04
116  3.63926773691924002e-05
117  7.78249591311996799e-05
118 -5.51984475721042318e-05
119  1.40282765861801206e-03
120  5.38006543695177149e-03
121  5.07849676328513263e-04
122  2.15940131663825254e-03
123 -1.07336116445181423e-04
124  8.41998223641840559e-04
125  3.70502897191899751e-04
126  1.02255566799595380e-04
127 -2.86015665116051080e-04
128 -5.40575695862787809e-04
129  6.82740714299229614e-05
130  1.07300301967083292e-05
131 -2.43789816386494302e-04
132 -1.09782144706984853e-04
133  3.95704836891587800e-04
134 -1.14160716520061346e-04
135  4.68641525538622495e-04
136  1.81284489855948916e-04
137 -7.02724933333455284e-04
138 -2.28054159685511315e-03
139 -1.71259703680460765e-04
140  7.00386219288643775e-04
141  1.67118328573853626e-03
142  4.75838848532541235e-04
143 -5.14964311990080280e-04
144 -2.73030203929125112e-04
145  2.23424696390634158e-04
146  2.29047378395558503e-04
147 -9.46757317860529024e-03
148  1.95330957720682473e-03
149 -2.59676680639002455e-03
150 -1.11661307840559888e-03
151  1.59308429025956485e-04
152  4.73328557601574145e-04
153  5.32936405120749144e-04
154  1.51976221666149557e-04
155 -2.65753930197376402e-04
156  5.92286089822380030e-04
 Sym= A
 Ene= -1.05362696863086445e+01
 Spin= Alpha
 Occup=  1.00000000000000000e+00
  1  2.78219254507433968e-04
  2  2.90304974725118453e-04
  3 -1.85536980609927108e-05
  4 -2.43768228794150146e-06
  5 -3.58555169266920452e-05
  6 -2.34373222303183444e-04
  7  3.25278071480895339e-04
  8  3.08983257313997425e-06
  9  4.20538968221937336e-04
 10 -1.10553387863242757e-03
 11  1.10174884226710073e-03
 12  3.58475472817195741e-04
 13  2.04425237284727913e-04
 14 -9.64864344228351590e-05
 15 -2.21586231081141353e-04
 16  5.64666881090135738e-05
 17 -1.35526109666515833e-06
 18  1.93225788346554997e-06
 19  4.63763245038329493e-03
 20 -6.42343731981548263e-04
 21  9.46008193383579359e-04
 22 -6.54521790196380907e-03
 23 -1.17859610929880836e-05
 24 -2.77241183694638450e-04
 25 -7.43393927827898214e-05
 26  3.63882971173706623e-05
 27  1.04316479925095564e-04
 28 -1.93925027730604879e-04
 29 -3.19826235262031085e-05
 30 -9.04054017988041749e-05
 31 -3.35025483851585071e-04
 32  1.27541604851945422e-03
 33  1.83600386314734668e-04
 34  4.39872910560482164e-04
 35  8.67066691385960956e-04
 36 -4.31269604220855607e-04
 37 -2.64308300087400774e-04
 38  2.30539670388138485e-04
 39  5.99846363510280487e-04
 40  1.58676913690369088e-04
 41  3.07173019298717201e-05
 42 -3.15497310046443412e-04
 43 -1.33142065409932401e-04
 44 -1.62572157606518282e-02
 45 -2.67564389629512374e-03
 46 -5.55304032672133358e-05
 47 -3.31078316695544239e-03
 48 -7.34908403292040921e-05
 49 -7.90220413954181568e-05
 50  7.85399153316066541e-04
 51 -4.24262908558323965e-03
 52 -3.04111497986180685e-03
 53 -5.74586882084807626e-04
 54  1.38013601228362084e-05
 55  7.23119244050661339e-04
 56 -1.54318145110914659e-03
 57  3.07341716750892660e-03
 58 -6.97556048007108001e-05
 59 -3.97227029343542350e-03
 60  1.40258506245397128e-03
 61 -3.62624336584455866e-04
 62  5.06612601781175923e-04
 63  2.79573921522541756e-03
 64 -1.67736032386669683e-03
 65  1.99411383823367046e-03
 66 -8.93541997327292964e-05
 67 -2.76473283242578216e-04
 68  2.05212349517735771e-04
 69 -9.53206860551863121e-03
 70  2.20709937022727431e-03
 71 -4.96248297497799422e-04
 72 -6.69537623574979735e-04
 73 -2.72103142670835642e-04
 74  1.85490363014766428e-04
 75  1.50379923923204010e-03
 76  5.63717133979240281e-01
 77  4.62758748943691900e-01
 78 -4.82539623561581421e-05
 79  1.52818771549056977e-05
 80  2.62171937810372986e-04
 81  1.79121477297110275e-02
 82  2.76420039559109858e-03
 83  9.14556864083729688e-05
 84 -2.88384352313264709e-03
 85 -1.35062465125149675e-02
 86 -3.62044346300808596e-03
 87 -7.69404022863425896e-04
 88  3.90227539740671634e-04
 89  1.47680429549307420e-03