[Molden Format]
[Atoms] (AU)
C    1    6         2.688203947216       0.126267316038      -0.211284584910
H    2    1         4.728095907479       0.359456870713      -0.218011119477
C    3    6         1.369782617967       0.204435981782      -2.374855666231
H    4    1         2.318345438850       0.530982748944      -4.165937681460
C    5    6        -1.369782617967      -0.204435981782      -2.374855666231
H    6    1        -2.318345438850      -0.530982748944      -4.165937681460
C    7    6        -2.688203947216      -0.126267316038      -0.211284584910
H    8    1        -4.728095907290      -0.359456870902      -0.218011119477
C    9    6        -1.377448045575       0.458746757807       2.255586404767
H   10    1        -1.428727068278       2.518961490447       2.552818698465
H   11    1        -2.401900037590      -0.368832778254       3.849461186775
C   12    6         1.377448045575      -0.458746757807       2.255586404767
H   13    1         1.428727068278      -2.518961490069       2.552818698465
H   14    1         2.401900037401       0.368832778065       3.849461186397
[GTO]
  1 0
 s    6  1.00
     4563.2400000000         0.0019666500
      682.0240000000         0.0152306000
      154.9730000000         0.0761269000
       44.4553000000         0.2608010000
       13.0290000000         0.6164620000
        1.8277300000         0.2210060000
 s    3  1.00
       20.9642000000         0.1146600000
        4.8033100000         0.9199990000
        1.4593300000        -0.0030306800
 p    3  1.00
       20.9642000000         0.0402487000
        4.8033100000         0.2375940000
        1.4593300000         0.8158540000
 s    1  1.00
        0.4834560000         1.0000000000
 p    1  1.00
        0.4834560000         1.0000000000
 s    1  1.00
        0.1455850000         1.0000000000
 p    1  1.00
        0.1455850000         1.0000000000
 d    1  1.00
        0.6260000000         1.0000000000
 s    1  1.00
        0.0438000000         1.0000000000
 p    1  1.00
        0.0438000000         1.0000000000

  2 0
 s    3  1.00
       33.8650000000         0.0254938000
        5.0947900000         0.1903730000
        1.1587900000         0.8521610000
 s    1  1.00
        0.3258400000         1.0000000000
 s    1  1.00
        0.1027410000         1.0000000000

  3 0
 s    6  1.00
     4563.2400000000         0.0019666500
      682.0240000000         0.0152306000
      154.9730000000         0.0761269000
       44.4553000000         0.2608010000
       13.0290000000         0.6164620000
        1.8277300000         0.2210060000
 s    3  1.00
       20.9642000000         0.1146600000
        4.8033100000         0.9199990000
        1.4593300000        -0.0030306800
 p    3  1.00
       20.9642000000         0.0402487000
        4.8033100000         0.2375940000
        1.4593300000         0.8158540000
 s    1  1.00
        0.4834560000         1.0000000000
 p    1  1.00
        0.4834560000         1.0000000000
 s    1  1.00
        0.1455850000         1.0000000000
 p    1  1.00
        0.1455850000         1.0000000000
 d    1  1.00
        0.6260000000         1.0000000000
 s    1  1.00
        0.0438000000         1.0000000000
 p    1  1.00
        0.0438000000         1.0000000000

  4 0
 s    3  1.00
       33.8650000000         0.0254938000
        5.0947900000         0.1903730000
        1.1587900000         0.8521610000
 s    1  1.00
        0.3258400000         1.0000000000
 s    1  1.00
        0.1027410000         1.0000000000

  5 0
 s    6  1.00
     4563.2400000000         0.0019666500
      682.0240000000         0.0152306000
      154.9730000000         0.0761269000
       44.4553000000         0.2608010000
       13.0290000000         0.6164620000
        1.8277300000         0.2210060000
 s    3  1.00
       20.9642000000         0.1146600000
        4.8033100000         0.9199990000
        1.4593300000        -0.0030306800
 p    3  1.00
       20.9642000000         0.0402487000
        4.8033100000         0.2375940000
        1.4593300000         0.8158540000
 s    1  1.00
        0.4834560000         1.0000000000
 p    1  1.00
        0.4834560000         1.0000000000
 s    1  1.00
        0.1455850000         1.0000000000
 p    1  1.00
        0.1455850000         1.0000000000
 d    1  1.00
        0.6260000000         1.0000000000
 s    1  1.00
        0.0438000000         1.0000000000
 p    1  1.00
        0.0438000000         1.0000000000

  6 0
 s    3  1.00
       33.8650000000         0.0254938000
        5.0947900000         0.1903730000
        1.1587900000         0.8521610000
 s    1  1.00
        0.3258400000         1.0000000000
 s    1  1.00
        0.1027410000         1.0000000000

  7 0
 s    6  1.00
     4563.2400000000         0.0019666500
      682.0240000000         0.0152306000
      154.9730000000         0.0761269000
       44.4553000000         0.2608010000
       13.0290000000         0.6164620000
        1.8277300000         0.2210060000
 s    3  1.00
       20.9642000000         0.1146600000
        4.8033100000         0.9199990000
        1.4593300000        -0.0030306800
 p    3  1.00
       20.9642000000         0.0402487000
        4.8033100000         0.2375940000
        1.4593300000         0.8158540000
 s    1  1.00
        0.4834560000         1.0000000000
 p    1  1.00
        0.4834560000         1.0000000000
 s    1  1.00
        0.1455850000         1.0000000000
 p    1  1.00
        0.1455850000         1.0000000000
 d    1  1.00
        0.6260000000         1.0000000000
 s    1  1.00
        0.0438000000         1.0000000000
 p    1  1.00
        0.0438000000         1.0000000000

  8 0
 s    3  1.00
       33.8650000000         0.0254938000
        5.0947900000         0.1903730000
        1.1587900000         0.8521610000
 s    1  1.00
        0.3258400000         1.0000000000
 s    1  1.00
        0.1027410000         1.0000000000

  9 0
 s    6  1.00
     4563.2400000000         0.0019666500
      682.0240000000         0.0152306000
      154.9730000000         0.0761269000
       44.4553000000         0.2608010000
       13.0290000000         0.6164620000
        1.8277300000         0.2210060000
 s    3  1.00
       20.9642000000         0.1146600000
        4.8033100000         0.9199990000
        1.4593300000        -0.0030306800
 p    3  1.00
       20.9642000000         0.0402487000
        4.8033100000         0.2375940000
        1.4593300000         0.8158540000
 s    1  1.00
        0.4834560000         1.0000000000
 p    1  1.00
        0.4834560000         1.0000000000
 s    1  1.00
        0.1455850000         1.0000000000
 p    1  1.00
        0.1455850000         1.0000000000
 d    1  1.00
        0.6260000000         1.0000000000
 s    1  1.00
        0.0438000000         1.0000000000
 p    1  1.00
        0.0438000000         1.0000000000

  10 0
 s    3  1.00
       33.8650000000         0.0254938000
        5.0947900000         0.1903730000
        1.1587900000         0.8521610000
 s    1  1.00
        0.3258400000         1.0000000000
 s    1  1.00
        0.1027410000         1.0000000000

  11 0
 s    3  1.00
       33.8650000000         0.0254938000
        5.0947900000         0.1903730000
        1.1587900000         0.8521610000
 s    1  1.00
        0.3258400000         1.0000000000
 s    1  1.00
        0.1027410000         1.0000000000

  12 0
 s    6  1.00
     4563.2400000000         0.0019666500
      682.0240000000         0.0152306000
      154.9730000000         0.0761269000
       44.4553000000         0.2608010000
       13.0290000000         0.6164620000
        1.8277300000         0.2210060000
 s    3  1.00
       20.9642000000         0.1146600000
        4.8033100000         0.9199990000
        1.4593300000        -0.0030306800
 p    3  1.00
       20.9642000000         0.0402487000
        4.8033100000         0.2375940000
        1.4593300000         0.8158540000
 s    1  1.00
        0.4834560000         1.0000000000
 p    1  1.00
        0.4834560000         1.0000000000
 s    1  1.00
        0.1455850000         1.0000000000
 p    1  1.00
        0.1455850000         1.0000000000
 d    1  1.00
        0.6260000000         1.0000000000
 s    1  1.00
        0.0438000000         1.0000000000
 p    1  1.00
        0.0438000000         1.0000000000

  13 0
 s    3  1.00
       33.8650000000         0.0254938000
        5.0947900000         0.1903730000
        1.1587900000         0.8521610000
 s    1  1.00
        0.3258400000         1.0000000000
 s    1  1.00
        0.1027410000         1.0000000000

  14 0
 s    3  1.00
       33.8650000000         0.0254938000
        5.0947900000         0.1903730000
        1.1587900000         0.8521610000
 s    1  1.00
        0.3258400000         1.0000000000
 s    1  1.00
        0.1027410000         1.0000000000

[5D]
[9G]

[MO]
 Sym= A
 Ene= -1.12312566180811970e+01
 Spin= Alpha
 Occup=  1.00000000000000000e+00
  1  5.63356060869708020e-01
  2  4.66561080312301979e-01
  3  1.41974630857312928e-04
  4 -5.88422995294290304e-07
  5  3.32676575640188901e-04
  6  4.28122048195865666e-03
  7 -2.92875533251972422e-04
  8  1.96356288735681064e-05
  9 -6.77654740324435843e-04
 10 -6.13129018641048033e-04
 11  2.60300226680080561e-04
 12  7.57451140500269509e-05
 13  6.51015698954431998e-05
 14  2.59240878796859493e-04
 15  3.44240964597169444e-04
 16 -4.75611997694838946e-05
 17  3.10719498779646048e-04
 18  3.59528070408090020e-05
 19  1.52205738656256668e-05
 20 -2.74921092210447793e-04
 21 -1.54384644467821345e-04
 22 -3.61865210104648312e-04
 23  4.12877310050955204e-04
 24 -1.52864291433418988e-04
 25  2.16964225312845656e-04
 26 -1.43401158651635969e-04
 27 -1.64581599009505614e-04
 28  1.40582841221983934e-04
 29 -1.15110154407052147e-05
 30  2.31632481924964461e-04
 31  2.01156785993301501e-04
 32 -8.14916967082465786e-05
 33  1.10530724960337368e-05
 34 -1.50153725580773318e-04
 35 -1.99423311477857671e-04
 36 -4.30517994202368542e-05
 37 -5.28684126498468041e-05
 38  1.15149627496680747e-04
 39 -8.34674985262711869e-05
 40 -1.66068730869327003e-05
 41  2.56589907102022984e-05
 42 -1.02205144447233215e-04
 43 -2.65645363436251372e-05
 44  2.77658528572150476e-04
 45 -2.24026635745030648e-04
 46  5.66407094411510551e-05
 47  2.92327252610282513e-04
 48 -5.36107781496249391e-07
 49  1.58771860080558960e-05
 50  9.76631590712457350e-05
 51  2.95702900835580077e-05
 52  2.44196882463090629e-05
 53 -5.29865916976718335e-06
 54 -2.87762474308122639e-07
 55 -1.11933179408603334e-05
 56 -4.43066176237503293e-06
 57 -9.94904154334614296e-06
 58 -3.04121491309177474e-06
 59  3.71782545263253452e-05
 60  1.64303973238821865e-04
 61 -2.34830456952010532e-05
 62  2.48944262535377112e-05
 63  9.13411695018764749e-05
 64  2.15734584097369225e-05
 65  2.46703732574130853e-05
 66  2.91813310618870844e-06
 67 -4.70210932759693620e-06
 68 -5.08595645146127952e-06
 69 -3.08134720152485140e-03
 70  3.75288535169524082e-04
 71 -2.14932586346011615e-05
 72 -6.60455452173451356e-04
 73 -4.20344792029496360e-06
 74  7.60404618153194694e-06
 75  7.64673069784756914e-05
 76  1.23518648481690096e-06
 77  4.18092388628655771e-07
 78 -3.26459440720302383e-06
 79 -9.78199505596540756e-07
 80 -1.18690573742209703e-06
 81  1.47717985595951534e-05
 82 -1.77759030545578739e-06
 83  2.10332258439556695e-06
 84  8.32424994665023541e-06
 85 -2.17923628374336092e-04
 86 -1.74726721907282753e-04
 87 -4.71986964796608684e-05
 88  6.66054329325713743e-05
 89  6.60249368115354097e-06
 90  1.28063757965719926e-05
 91 -1.12086751544706160e-06
 92  1.45900850991293209e-07
 93 -9.91545062130947418e-07
 94  1.29268328380599215e-03
 95  1.90598943075185267e-04
 96 -8.11364672261260785e-05
 97 -1.02992832676125547e-03
 98  4.10404941409227059e-06
 99 -2.89723468164235071e-05
100 -4.32118983620577687e-05
101 -1.62667202315025979e-05
102 -1.57424176363340065e-05
103 -1.43273142303129196e-05
104  9.20264074456607570e-06
105  4.14208283186670591e-06
106 -2.43004777414189664e-05
107  4.44061091845122967e-05
108 -3.35676654505292672e-05
109 -3.63844382303501043e-06
110  2.20204868143486699e-04
111  1.04942696652947731e-04
112  1.21763261716124216e-04
113 -6.03961619782103880e-05
114 -2.12962838778758172e-05
115 -1.05318606097339486e-05
116  7.53892725124241723e-06
117  1.60424489763676603e-05
118 -2.27018166403875644e-05
119 -2.31237312155579707e-05
120 -7.09826700408126886e-04
121 -1.46536493447457409e-04
122 -2.16653215570398636e-04
123  1.44214862902511156e-05
124 -9.61973912471865455e-05
125 -2.52590443547609292e-05
126  1.69420901354205915e-06
127  3.55805269183211988e-05
128 -3.15922002517439641e-05
129  3.91129589516066031e-06
130 -7.27275452164888423e-05
131  4.62128641364191022e-05
132  3.12623910220670949e-05
133 -1.03750982343867222e-04
134  3.52929396082360739e-04
135  2.04669692263091511e-04
136  6.57216625464275957e-05
137 -3.32061883338333880e-04
138 -8.14468027642335112e-05
139 -1.09518309927456275e-05
140 -1.25048810989352496e-04
141 -1.28628419930000873e-05
142  1.07685158232942736e-04
143 -1.26604018158582137e-04
144 -4.97219435719439273e-05
145 -3.11240084926147625e-05
146  3.38967504087283155e-05
147  1.77709622540883128e-03
148 -1.10585583135877502e-04
149  3.90768918135959130e-04
150 -4.26756292061189095e-05
151 -1.13839443072438069e-05
152 -3.73997615175138003e-07
153 -1.20597184750693311e-04
154  7.42015957893926407e-07
155  8.35352596142599594e-05
156 -1.89890868283203109e-04
 Sym= A
 Ene= -1.12312256282185050e+01
 Spin= Alpha
 Occup=  1.00000000000000000e+00
  1 -1.23518449397705464e-06
  2 -4.18090921009477517e-07
  3 -3.26459442388871061e-06
  4 -9.78199631352380790e-07
  5  1.18690619227026051e-06
  6 -1.47717968299264990e-05
  7 -1.77759064690291392e-06
  8  2.10332306333377858e-06
  9 -8.32425190698559557e-06
 10  2.17923635524938631e-04
 11 -1.74726729738586311e-04
 12 -4.71987018881151721e-05
 13 -6.66054148185164948e-05
 14 -6.60249381945368145e-06
 15  1.28063752337889283e-05
 16 -1.12086773494683714e-06
 17 -1.45901391859453355e-07
 18  9.91545277331344229e-07
 19 -1.29268292401471942e-03
 20  1.90598899955063861e-04
 21 -8.11364250064513549e-05
 22  1.02992805779762611e-03
 23 -4.10405009514033318e-06
 24  2.89723517399679860e-05
 25  4.32118885190845779e-05
 26 -2.95702743610603766e-05
 27 -2.44196753194305215e-05
 28 -5.29865949467403875e-06
 29 -2.87762651819616197e-07
 30  1.11933178382086765e-05
 31  4.43066299082470049e-06
 32 -9.94904005440362029e-06
 33 -3.04121421637679932e-06
 34 -3.71782539470559857e-05
 35 -1.64303978914254184e-04
 36 -2.34830321746613950e-05
 37  2.48944273596550926e-05
 38 -9.13411818258038895e-05
 39 -2.15734582536723420e-05
 40  2.46703733789422453e-05
 41  2.91813300396726550e-06
 42  4.70210918173920439e-06
 43  5.08595661168938607e-06
 44  3.08134710461865653e-03
 45  3.75288261023176912e-04
 46 -2.14932819939512704e-05
 47  6.60455370989349922e-04
 48  4.20344843494488770e-06
 49 -7.60405125422223959e-06
 50 -7.64673090198298241e-05
 51  1.43401180897888308e-04
 52  1.64581617537009446e-04
 53  1.40582841593726339e-04
 54 -1.15110155485727599e-05
 55 -2.31632482221938386e-04
 56 -2.01156790857203588e-04
 57 -8.14916993483523098e-05
 58  1.10530729420102529e-05
 59  1.50153728416172334e-04
 60  1.99423384693290465e-04
 61 -4.30518039447693905e-05
 62 -5.28684101906936430e-05
 63 -1.15149593095158589e-04
 64  8.34675012639340123e-05
 65 -1.66068754646477161e-05
 66  2.56589910517710686e-05
 67  1.02205146156335977e-04
 68  2.65645364820531296e-05
 69 -2.77659969844023862e-04
 70 -2.24026636983787439e-04
 71  5.66406688920878770e-05
 72 -2.92327461566226912e-04
 73  5.36108487650999048e-07
 74 -1.58771909655957237e-05
 75 -9.76631257597378725e-05
 76 -5.63356060869939168e-01
 77 -4.66561080311926835e-01
 78  1.41974631395165216e-04
 79 -5.88423070502075699e-07
 80 -3.32676576182771482e-04
 81 -4.28122047668036843e-03
 82 -2.92875535912996384e-04
 83  1.96356290912634004e-05
 84  6.77654744451889756e-04
 85  6.13128934094115427e-04
 86  2.60300207014947107e-04
 87  7.57451128737849451e-05
 88 -6.51015552854265664e-05
 89 -2.59240881019824252e-04
 90  3.44240966478433035e-04
 91 -4.75612003112707723e-05
 92 -3.10719501061728232e-04
 93 -3.59528076029426140e-05
 94 -1.52193347233398313e-05
 95 -2.74920895347610618e-04
 96 -1.54384617827112934e-04
 97  3.61865047037993948e-04
 98 -4.12877312208011096e-04
 99  1.52864304093465909e-04
100 -2.16964262401283880e-04
101 -3.91130293742445170e-06
102  7.27275394064259893e-05
103  4.62128643893456678e-05
104  3.12623910622684305e-05
105  1.03750982890752947e-04
106 -3.52929397793693637e-04
107  2.04669691089839911e-04
108  6.57216624405451569e-05
109  3.32061880952806557e-04
110  8.14468219338694826e-05
111 -1.09518291246186196e-05
112 -1.25048814604024588e-04
113  1.28628349687765858e-05
114 -1.07685157669794494e-04
115 -1.26604017653480453e-04
116 -4.97219429450729695e-05
117  3.11240088420517607e-05
118 -3.38967507503059118e-05
119 -1.77709626229693649e-03
120 -1.10585528449743138e-04
121  3.90768884165322767e-04
122  4.26757411883970351e-05
123  1.13839445317086577e-05
124  3.73996019772512840e-07
125  1.20597187916315983e-04
126 -7.42015824041525753e-07
127 -8.35352598957260126e-05
128  1.89890861437894500e-04
129  1.62667329370898820e-05
130  1.57424279950084858e-05
131 -1.43273146228472861e-05
132  9.20264117116297268e-06
133 -4.14208270734206892e-06
134  2.43004794749337229e-05
135  4.44061110313965146e-05
136 -3.35676672724263451e-05
137  3.63844351862196980e-06
138 -2.20204893534329963e-04
139  1.04942690277803923e-04
140  1.21763266939669662e-04
141  6.03961712814757537e-05
142  2.12962840227689750e-05
143 -1.05318602403052991e-05
144  7.53892753305110464e-06
145 -1.60424487955785913e-05
146  2.27018167429922026e-05
147  2.31237027267478845e-05
148 -7.09826538931776908e-04
149 -1.46536493545193464e-04
150  2.16653165421145695e-04
151 -1.44214859664794173e-05
152  9.61973910395100046e-05
153  2.52590653632111339e-05
154 -1.69420853724576085e-06
155 -3.55805293887335216e-05
156  3.15922151371579376e-05
 Sym= A
 Ene= -1.12295697641310355e+01
 Spin= Alpha
 Occup=  1.00000000000000000e+00
  1  1.02533480967072433e-04
  2  1.53647307211975288e-04
  3  5.61114552936149417e-05
  4  2.55940905609565297e-05
  5 -1.11217929648873591e-04
  6 -2.58686917199109139e-04
  7  1.57348921314476748e-04
  8  6.28004495240968555e-05
  9 -3.24456200218669266e-04
 10 -9.84188470563720575e-04
 11  4.35096299874948816e-04
 12  1.01265135969405548e-04
 13 -3.76990990632388682e-04
 14 -9.28580210701539336e-05
 15  1.27099949736799442e-04
 16  4.03580706303209165e-05
 17 -1.81394044477693194e-05
 18 -2.48228575586984273e-05
 19 -2.05723581114707977e-03
 20  3.91441279285268491e-04
 21  1.04599058202617550e-04
 22  3.01805577068447973e-04
 23  1.82296860705491643e-06
 24 -8.38937533084147871e-06
 25 -7.23029028830860448e-05
 26 -3.18143867254106440e-05
 27 -2.58837054217426049e-05
 28  7.77962504994880262e-07
 29  2.50074452067971829e-06
 30  4.31753611362215733e-06
 31 -1.00090918669116391e-05
 32 -6.90440571208483785e-06
 33 -1.14685432103534527e-05
 34 -2.85817233009624477e-06
 35  2.99983551230005683e-04
 36 -2.13880551919616975e-04
 37 -1.86051848128239383e-05
 38  1.85189883203965114e-04
 39 -1.99378267589065978e-05
 40 -4.63048903648096268e-06
 41  8.77052732212718447e-06
 42  5.37865639790436519e-06
 43 -4.97055870872252909e-07
 44  3.13827952747633247e-03
 45 -2.00357631636533326e-04
 46 -1.49313463868851789e-04
 47  4.40313272107406063e-04
 48 -5.19521476436442366e-06
 49  4.65784714306379357e-05
 50 -1.65908516941498564e-05
 51  2.91820342114706242e-05
 52  2.17178465336217137e-05
 53  2.10090934473733550e-06
 54  2.04160664529587489e-06
 55 -2.19845482757819775e-06
 56  2.95402178367943234e-05
 57 -1.62005572574307593e-06
 58 -1.39588447048291492e-05
 59  1.85759594682428872e-05
 60 -2.66025210205470355e-04
 61 -1.07594345506718613e-04
 62 -9.53216779804607886e-06
 63 -1.25628038432500344e-04
 64  2.62114953050124263e-07
 65  6.35088565751858957e-06
 66  2.81071232393491469e-06
 67 -1.36178794058893416e-05
 68  4.34842512137131565e-07
 69 -1.51267385697713072e-03
 70 -5.18146658815228319e-04
 71  5.34132949195164103e-06
 72 -1.81729273382416769e-04
 73  4.02046205564226779e-06
 74 -2.46061639588587422e-05
 75 -2.80452752481781452e-05
 76 -1.95952319683363931e-05
 77 -1.81771965525186480e-05
 78  2.41949639913373003e-06
 79  3.58102957869057456e-06
 80  5.48849389503186245e-06
 81  3.47926546382452183e-05
 82  1.70373894052264646e-05
 83 -1.37317365079712297e-05
 84 -1.29510885161940745e-05
 85  9.97761892470835682e-05
 86 -4.75085157195237332e-05
 87  7.82825845820817163e-07
 88 -3.98945520709216532e-05
 89 -6.69667232855299327e-06
 90 -1.77095165689432427e-05
 91 -8.56197486826136412e-06
 92 -1.30788136941070370e-05
 93  6.81667666925058396e-06
 94  1.90676579496724214e-03
 95  3.08038594926106921e-04
 96  9.28033230063760973e-06
 97  5.91527403410191431e-04
 98  1.42972625186737411e-06
 99 -2.16922456807201645e-05
100 -8.60692644704222928e-05
101  4.51304951815566035e-05
102  9.96911224261368600e-05
103 -1.03690854393490343e-04
104  4.05825275930223357e-05
105 -1.49361113646584984e-06
106 -2.38733208429675299e-04
107 -3.58243453155573076e-04
108  9.39045301626816872e-05
109  7.22799788704402934e-06
110 -8.55206426575153846e-04
111 -3.28504204390289549e-04
112  1.68694824901143562e-04
113 -7.43624152606969536e-05
114  8.83600723803225346e-05
115  1.93975755007093343e-05
116  2.70789723969339704e-06
117 -1.04599515189352150e-04
118  7.54933640652590633e-05
119 -2.62201828881059376e-03
120  1.32765236193246595e-04
121  3.32649066192001498e-04
122  4.28457589026442944e-04
123  2.78721545308105620e-06
124  2.58597400589202540e-05
125  4.23616553335630534e-05
126 -7.44014200523761470e-06
127  6.86525194244237398e-05
128  1.77040126129112579e-04
129 -5.63393637392902269e-01
130 -4.66522046419508896e-01
131 -1.95538201687103288e-05
132 -4.20165695055497329e-05
133  1.44921142603479945e-04
134 -4.51521351392421538e-03
135 -3.72803225368387243e-05
136  8.69136455597389792e-05
137 -1.65363595887525950e-04
138  2.88332963456860818e-03
139 -1.97063883635221587e-04
140  1.01805899350399171e-04
141 -3.22540663159157537e-04
142  8.06280554458006924e-06
143 -8.04158996867173058e-05
144 -5.07580060687949866e-05
145  8.58504840182229621e-05
146 -4.89354231567788888e-05
147  1.33906509218070574e-03
148 -1.85489310188217477e-04
149 -1.13974277839471472e-04
150 -5.45019674689184195e-05
151 -3.30204742165221869e-04
152 -2.30692524837625921e-04
153 -4.91555171838914807e-04
154 -3.40643002209508683e-04
155 -1.63077901543098256e-04
156 -4.57226035285062933e-04
 Sym= A
 Ene= -1.12289894889588595e+01
 Spin= Alpha
 Occup=  1.00000000000000000e+00
  1  1.95952192806695580e-05
  2  1.81771860322411481e-05
  3  2.41949603067745365e-06
  4  3.58102969911438412e-06
  5 -5.48849400667134954e-06
  6 -3.47926541914700331e-05
  7  1.70373907623669557e-05
  8 -1.37317369939279178e-05
  9  1.29510891054387852e-05
 10 -9.97761910591854012e-05
 11 -4.75085195770009100e-05
 12  7.82826798388102828e-07
 13  3.98945402843156805e-05
 14  6.69667220498096934e-06
 15 -1.77095163687694757e-05
 16 -8.56197502660284200e-06
 17  1.30788131936109775e-05
 18 -6.81667686508787854e-06
 19 -1.90676541036295124e-03
 20  3.08038515339389659e-04
 21  9.28029575082430530e-06
 22 -5.91527126107195111e-04
 23 -1.42972706295247538e-06
 24  2.16922506129778680e-05
 25  8.60692532599631639e-05
 26 -2.91820398336990455e-05
 27 -2.17178511610794121e-05
 28  2.10090886345007322e-06
 29  2.04160663244203514e-06
 30  2.19845476394897602e-06
 31 -2.95402182147092773e-05
 32 -1.62005366526803268e-06
 33 -1.39588446516165455e-05
 34 -1.85759590132367948e-05
 35  2.66025211038458873e-04
 36 -1.07594360083425507e-04
 37 -9.53216896556739598e-06
 38  1.25628036025515034e-04
 39 -2.62115168641748652e-07
 40  6.35088574933241588e-06
 41  2.81071230522176815e-06
 42  1.36178795144898346e-05
 43 -4.34842581765529254e-07
 44  1.51267412825723739e-03
 45 -5.18146544537255601e-04
 46  5.34133380253929191e-06
 47  1.81729341975526070e-04
 48 -4.02046206869985751e-06
 49  2.46061647407115860e-05
 50  2.80452755355433120e-05
 51  3.18143886990865528e-05
 52  2.58837071500382460e-05
 53  7.77962535955508483e-07
 54  2.50074444986446852e-06
 55 -4.31753625135237847e-06
 56  1.00090904632336806e-05
 57 -6.90440604782266205e-06
 58 -1.14685429449865599e-05
 59  2.85817312469067102e-06
 60 -2.99983547737930564e-04
 61 -2.13880564412751703e-04
 62 -1.86051878765394387e-05
 63 -1.85189884993458499e-04
 64  1.99378271521232087e-05
 65 -4.63048940859848688e-06
 66  8.77052737201836866e-06
 67 -5.37865594317099458e-06
 68  4.97055913709990881e-07
 69 -3.13827976337301270e-03
 70 -2.00357635321626653e-04
 71 -1.49313465563687521e-04
 72 -4.40313377889627370e-04
 73  5.19521546424580813e-06
 74 -4.65784762620867550e-05
 75  1.65908545158312622e-05
 76 -1.02533488000137128e-04
 77 -1.53647313093770285e-04
 78  5.61114556822449743e-05
 79  2.55940904620196899e-05
 80  1.11217929702508815e-04
 81  2.58686918095141032e-04
 82  1.57348919923683479e-04
 83  6.28004499415723714e-05
 84  3.24456200496867412e-04
 85  9.84188466907246796e-04
 86  4.35096312178149592e-04
 87  1.01265138974457349e-04
 88  3.76991001320427623e-04
 89  9.28580208684962597e-05
 90  1.27099950215179229e-04
 91  4.03580707336290392e-05
 92  1.81394036609370807e-05
 93  2.48228574765503261e-05
 94  2.05723667683328261e-03
 95  3.91441416003964154e-04
 96  1.04599080051786007e-04
 97 -3.01805451756837113e-04
 98 -1.82296971743237210e-06
 99  8.38938350194350647e-06
100  7.23028884905914566e-05
101  5.63393637393510560e-01
102  4.66522046418666791e-01
103 -1.95538198170735251e-05
104 -4.20165697297528013e-05
105 -1.44921142481239566e-04
106  4.51521351644102419e-03
107 -3.72803245129312588e-05
108  8.69136470330129289e-05
109  1.65363596255917167e-04
110 -2.88332965347159022e-03
111 -1.97063879289220408e-04
112  1.01805891067027800e-04
113  3.22540666563468333e-04
114 -8.06280560273898278e-06
115 -8.04158996799667785e-05
116 -5.07580063571458931e-05
117 -8.58504839107458517e-05
118  4.89354230129510342e-05
119 -1.33906566653755037e-03
120 -1.85489217496298504e-04
121 -1.13974223712826980e-04
122  5.45021109616262815e-05
123  3.30204742513044497e-04
124  2.30692524046769500e-04
125  4.91555209539425164e-04
126  3.40643002762590352e-04
127  1.63077897572835580e-04
128  4.57226068913559134e-04
129 -4.51304863218392817e-05
130 -9.96911150283248828e-05
131 -1.03690854651058791e-04
132  4.05825281869342860e-05
133  1.49361086823869284e-06
134  2.38733206943642160e-04
135 -3.58243451821661904e-04
136  9.39045274883544291e-05
137 -7.22799640835260687e-06
138  8.55206439907187999e-04
139 -3.28504206431376683e-04
140  1.68694840097303729e-04
141  7.43624067700510637e-05
142 -8.83600723190707769e-05
143  1.93975754672659934e-05
144  2.70789727707938574e-06
145  1.04599515332232947e-04
146 -7.54933639479787324e-05
147  2.62201750317082828e-03
148  1.32765156128873766e-04
149  3.32648998050225422e-04
150 -4.28457434285341014e-04
151 -2.78721449582519721e-06
152 -2.58597455123215141e-05
153 -4.23616010048973011e-05
154  7.44014338631132079e-06
155 -6.86525286690834379e-05
156 -1.77040080627697416e-04
 Sym= A
 Ene= -1.12276821363017678e+01
 Spin= Alpha
 Occup=  1.00000000000000000e+00
  1  9.40655905909118430e-05
  2  1.20517201084285167e-04
  3  1.43127993023608709e-04
  4 -8.59139209079249453e-06
  5  2.34095188868687726e-04
  6 -1.90992877796310103e-04
  7 -1.00511326898406999e-04
  8  4.36430266530124018e-06
  9 -1.64288377365916493e-04
 10  1.13375728491424538e-05
 11  2.30619678239852297e-04
 12 -2.83239203361818178e-07
 13  3.03417824900720965e-05
 14  7.92087595959700718e-05
 15  3.41584486834711353e-05
 16 -2.76807165280151091e-05
 17  1.11943608080842958e-04
 18  2.89288255324718988e-05
 19  1.45657029592883560e-03
 20 -5.50876354722639041e-05
 21  9.68433773532412456e-05
 22 -1.47901527023188097e-05
 23  3.59066576485494984e-06
 24 -2.17774460746203078e-05
 25 -1.36201976945964955e-04
 26 -5.63330751894178139e-01
 27 -4.66545571727250474e-01
 28  3.06638410525935702e-04
 29 -1.96721966280887948e-05
 30  2.82413661144187921e-04
 31 -4.39049007530763636e-03
 32 -5.03804765388990092e-04
 33  1.79174264096452792e-05
 34 -5.87421045857752029e-04
 35  8.46736066767333367e-04
 36 -7.72278931518555591e-05
 37 -4.38265868494091388e-05
 38  3.96783098691028818e-04
 39 -3.87695644113420011e-04
 40 -2.70615500771959636e-04
 41  7.51315122376544837e-05
 42 -2.41316016127612692e-04
 43 -2.94468144424491735e-05
 44 -1.61274837137212771e-03
 45  1.35788790218524223e-05
 46  2.71860527801395765e-05
 47 -7.90447834925480427e-04
 48 -4.20036718335819038e-04
 49  1.77832976308349731e-04
 50 -2.12112036054759010e-04
 51  5.95687799449500988e-05
 52  1.26158226589329867e-04
 53 -1.43488684965548791e-04
 54 -2.06930391259043494e-05
 55 -8.79814178343380553e-06
 56 -3.38992749626265666e-04
 57 -3.97996662448192129e-04
 58 -5.40358526493326901e-05
 59  6.88461063049765923e-05
 60 -3.61654000992771719e-04
 61 -6.82488172455248218e-06
 62 -1.75851931836022889e-05
 63 -3.27182104032959736e-04
 64  1.55544392804529761e-04
 65 -2.97950456524011863e-05
 66 -5.21965839730056619e-06
 67 -9.74783586308727108e-05
 68 -2.72741893386101828e-05
 69  2.55892379247860905e-03
 70 -4.93204301092098319e-04
 71 -5.60626868951933258e-05
 72  6.59662887938924523e-04
 73 -6.74263672440328621e-06
 74 -4.21123347184419004e-05
 75 -9.40213770054948835e-05
 76  2.35091362106165618e-05
 77  2.97601445729484035e-05
 78  8.85886049069242195e-06
 79 -4.67641676768688545e-06
 80 -1.11896923944979841e-05
 81 -6.93787017666546736e-05
 82 -4.91447010634381396e-05
 83  1.81357665072561671e-05
 84  7.87132431082815967e-05
 85  4.08286006591189346e-04
 86  2.10466739082196405e-04
 87  7.77117083471891339e-06
 88 -9.54113624806384532e-05
 89  2.17162999971210798e-06